# vtk DataFile Version 3.0
FEM Solution
ASCII
DATASET UNSTRUCTURED_GRID
POINTS 1136 float
0.0 0.0 1.0
0.0 0.0 0.0
0.0 1.0 1.0
0.0 1.0 0.0
1.0 0.0 1.0
1.0 0.0 0.0
1.0 1.0 1.0
1.0 1.0 0.0
0.0 0.0 0.1
0.0 0.0 0.2
0.0 0.0 0.3
0.0 0.0 0.4
0.0 0.0 0.5
0.0 0.0 0.6
0.0 0.0 0.7
0.0 0.0 0.8
0.0 0.0 0.9
0.0 0.1 1.0
0.0 0.2 1.0
0.0 0.3 1.0
0.0 0.4 1.0
0.0 0.5 1.0
0.0 0.6 1.0
0.0 0.7 1.0
0.0 0.8 1.0
0.0 0.9 1.0
0.0 1.0 0.1
0.0 1.0 0.2
0.0 1.0 0.3
0.0 1.0 0.4
0.0 1.0 0.5
0.0 1.0 0.6
0.0 1.0 0.7
0.0 1.0 0.8
0.0 1.0 0.9
0.0 0.1 0.0
0.0 0.2 0.0
0.0 0.3 0.0
0.0 0.4 0.0
0.0 0.5 0.0
0.0 0.6 0.0
0.0 0.7 0.0
0.0 0.8 0.0
0.0 0.9 0.0
1.0 0.0 0.1
1.0 0.0 0.2
1.0 0.0 0.3
1.0 0.0 0.4
1.0 0.0 0.5
1.0 0.0 0.6
1.0 0.0 0.7
1.0 0.0 0.8
1.0 0.0 0.9
1.0 0.1 1.0
1.0 0.2 1.0
1.0 0.3 1.0
1.0 0.4 1.0
1.0 0.5 1.0
1.0 0.6 1.0
1.0 0.7 1.0
1.0 0.8 1.0
1.0 0.9 1.0
1.0 1.0 0.1
1.0 1.0 0.2
1.0 1.0 0.3
1.0 1.0 0.4
1.0 1.0 0.5
1.0 1.0 0.6
1.0 1.0 0.7
1.0 1.0 0.8
1.0 1.0 0.9
1.0 0.1 0.0
1.0 0.2 0.0
1.0 0.3 0.0
1.0 0.4 0.0
1.0 0.5 0.0
1.0 0.6 0.0
1.0 0.7 0.0
1.0 0.8 0.0
1.0 0.9 0.0
0.1 0.0 0.0
0.2 0.0 0.0
0.3 0.0 0.0
0.4 0.0 0.0
0.5 0.0 0.0
0.6 0.0 0.0
0.7 0.0 0.0
0.8 0.0 0.0
0.9 0.0 0.0
0.1 0.0 1.0
0.2 0.0 1.0
0.3 0.0 1.0
0.4 0.0 1.0
0.5 0.0 1.0
0.6 0.0 1.0
0.7 0.0 1.0
0.8 0.0 1.0
0.9 0.0 1.0
0.1 1.0 0.0
0.2 1.0 0.0
0.3 1.0 0.0
0.4 1.0 0.0
0.5 1.0 0.0
0.6 1.0 0.0
0.7 1.0 0.0
0.8 1.0 0.0
0.9 1.0 0.0
0.1 1.0 1.0
0.2 1.0 1.0
0.3 1.0 1.0
0.4 1.0 1.0
0.5 1.0 1.0
0.6 1.0 1.0
0.7 1.0 1.0
0.8 1.0 1.0
0.9 1.0 1.0
0.0 0.4531597093716571 0.08477828132215667
0.0 0.08660254037844384 0.55
0.0 0.5394257192630868 0.9076320725884276
0.0 0.9133974596215562 0.45
0.0 0.0866025403784438 0.35
0.0 0.3490798000983427 0.91114569792819
0.0 0.6499999999999999 0.08660254037844384
0.0 0.9133974596215562 0.6499999999999999
0.0 0.08613067098656116 0.7491826982387223
0.0 0.7482623088816123 0.9237016865465129
0.0 0.2413274345293417 0.08962961249554277
0.0 0.9204077431036599 0.2540211967676216
0.0 0.08467720450558314 0.1504237369280876
0.0 0.8494067683006772 0.08294974041488148
0.0 0.1591825619057401 0.9094302752559207
0.0 0.9045047171897603 0.8445559454105696
0.0 0.08652389547979684 0.6498637830397869
0.0 0.1731919732737799 0.5999772971732975
0.0 0.1732028961763696 0.4999962161955494
0.0 0.2598050724580605 0.549995585561474
0.0 0.259806832259033 0.4499986336261702
0.0 0.346409605254847 0.4999990365312735
0.0 0.3468856718440168 0.5998443274153809
0.0 0.4332748469904136 0.5496569527925429
0.0 0.4330563000320965 0.4499426648873021
0.0 0.5196661994770081 0.4999332696133065
0.0 0.5196152422706625 0.3999999999999988
0.0 0.5198504120743954 0.599614762535742
0.0 0.6062654704841196 0.5499246720248401
0.0 0.605710538209107 0.6489630119845562
0.0 0.4330199682488647 0.3499904441478829
0.0 0.5163472462849928 0.2955325874841276
0.0 0.6056731166514944 0.3492554312473533
0.0 0.5196152422706636 0.6999999999999987
0.0 0.692743730260053 0.5998146140015643
0.0 0.6930455990744984 0.6973170879364426
0.0 0.6928155055388029 0.499956547671066
0.0 0.7794228634059945 0.5499999999999973
0.0 0.4298723602627997 0.2483833026197326
0.0 0.3458879823016457 0.2997289577946022
0.0 0.601276834831931 0.2464604358245061
0.0 0.6928203230275498 0.2999999999999979
0.0 0.3464101615137742 0.1999999999999993
0.0 0.2613952737193371 0.2528554613937111
0.0 0.7794228634059936 0.4499999999999972
0.0 0.6952466250757766 0.1890185627587989
0.0 0.7784372556618795 0.2512262400263001
0.0 0.1731111437946149 0.6998372964086343
0.0 0.1703018238307877 0.8005910765559353
0.0 0.2600576204709331 0.7500841147446835
0.0 0.256972649826711 0.8505076031401131
0.0 0.3478371929248252 0.8032720996948348
0.0 0.4405314356285007 0.8524960444086985
0.0 0.4352414774225546 0.7538603524572066
0.0 0.5262194475699877 0.7992114874707068
0.0 0.6196113524647593 0.8370418180231486
0.0 0.3473233670346225 0.7008598745201187
0.0 0.779422863405995 0.6499999999999974
0.0 0.7794228634059952 0.7499999999999976
0.0 0.0862816510663002 0.2500706228213478
0.0 0.9133974596215563 0.35
0.0 0.9133974596215564 0.5499999999999999
0.0 0.9184537499731447 0.7459001150420776
0.0 0.3471016110708875 0.100581604400647
0.0 0.08660217628169076 0.4499993693659248
0.0 0.7491088988960755 0.08675295442471612
0.0 0.3463313848719696 0.3999432894978717
0.0 0.2599719391109599 0.3504210570520592
0.0 0.5505266182286094 0.08422590298602681
0.0 0.5100201464585616 0.1832013645877696
0.0 0.2598076211353319 0.6499999999999995
0.0 0.6061426429082728 0.4498449867594272
0.0 0.7794228634059939 0.3499999999999973
0.0 0.1732319108272307 0.4000692127066172
0.0 0.1734480659765264 0.3005693923289559
0.0 0.6927162191563513 0.3998428276129731
0.0 0.181698450888036 0.1849605657946368
0.0 0.4339003554148544 0.6493947943791296
0.0 0.08212753751727725 0.8469321218965824
0.0 0.846566039305338 0.9221793048360533
0.0 0.906145656023032 0.1559066101390897
0.0 0.1491282519097913 0.0832464492428938
0.0 0.6082409310087338 0.7451895713491499
0.0 0.6499999999999998 0.9233581319170274
0.0 0.6991330683018876 0.7886952981163224
0.0 0.7999999999999998 0.1619468829961726
0.0 0.788420361705452 0.8392252876177748
0.0 0.6007214514892731 0.1593063755854259
0.0 0.8464101615137747 0.3999999999999985
0.0 0.8464101615137758 0.3000000000000002
0.0 0.2530470023661588 0.9342167152648447
0.0 0.8464101615137753 0.4999999999999987
0.0 0.8464101615137765 0.5999999999999994
0.0 0.8464101615137766 0.7000000000000005
0.0 0.2698557158514975 0.1674038105676657
0.0 0.45 0.9347437364684013
0.0 0.417312797735536 0.1633889105860611
0.0 0.9267949192431122 0.07320508075688788
0.0 0.07320508075688774 0.07320508075688772
0.0 0.07320508075688754 0.9267949192431125
0.0 0.9267949192431126 0.9267949192431126
0.0 0.6946433733397965 0.8646000335730718
0.0 0.8474423707576257 0.775936269614084
0.0 0.8502801632604694 0.2246201859858369
1.0 0.4531597093716571 0.08477828132215667
1.0 0.08660254037844384 0.55
1.0 0.5394257192630868 0.9076320725884276
1.0 0.9133974596215562 0.45
1.0 0.0866025403784438 0.35
1.0 0.3490798000983427 0.91114569792819
1.0 0.6499999999999999 0.08660254037844384
1.0 0.9133974596215562 0.6499999999999999
1.0 0.08613067098656116 0.7491826982387223
1.0 0.7482623088816123 0.9237016865465129
1.0 0.2413274345293417 0.08962961249554277
1.0 0.9204077431036599 0.2540211967676216
1.0 0.08467720450558314 0.1504237369280876
1.0 0.8494067683006772 0.08294974041488148
1.0 0.1591825619057401 0.9094302752559207
1.0 0.9045047171897603 0.8445559454105696
1.0 0.08652389547979684 0.6498637830397869
1.0 0.1731919732737799 0.5999772971732975
1.0 0.1732028961763696 0.4999962161955494
1.0 0.2598050724580605 0.549995585561474
1.0 0.259806832259033 0.4499986336261702
1.0 0.346409605254847 0.4999990365312735
1.0 0.3468856718440168 0.5998443274153809
1.0 0.4332748469904136 0.5496569527925429
1.0 0.4330563000320965 0.4499426648873021
1.0 0.5196661994770081 0.4999332696133065
1.0 0.5196152422706625 0.3999999999999988
1.0 0.5198504120743954 0.599614762535742
1.0 0.6062654704841196 0.5499246720248401
1.0 0.605710538209107 0.6489630119845562
1.0 0.4330199682488647 0.3499904441478829
1.0 0.5163472462849928 0.2955325874841276
1.0 0.6056731166514944 0.3492554312473533
1.0 0.5196152422706636 0.6999999999999987
1.0 0.692743730260053 0.5998146140015643
1.0 0.6930455990744984 0.6973170879364426
1.0 0.6928155055388029 0.499956547671066
1.0 0.7794228634059945 0.5499999999999973
1.0 0.4298723602627997 0.2483833026197326
1.0 0.3458879823016457 0.2997289577946022
1.0 0.601276834831931 0.2464604358245061
1.0 0.6928203230275498 0.2999999999999979
1.0 0.3464101615137742 0.1999999999999993
1.0 0.2613952737193371 0.2528554613937111
1.0 0.7794228634059936 0.4499999999999972
1.0 0.6952466250757766 0.1890185627587989
1.0 0.7784372556618795 0.2512262400263001
1.0 0.1731111437946149 0.6998372964086343
1.0 0.1703018238307877 0.8005910765559353
1.0 0.2600576204709331 0.7500841147446835
1.0 0.256972649826711 0.8505076031401131
1.0 0.3478371929248252 0.8032720996948348
1.0 0.4405314356285007 0.8524960444086985
1.0 0.4352414774225546 0.7538603524572066
1.0 0.5262194475699877 0.7992114874707068
1.0 0.6196113524647593 0.8370418180231486
1.0 0.3473233670346225 0.7008598745201187
1.0 0.779422863405995 0.6499999999999974
1.0 0.7794228634059952 0.7499999999999976
1.0 0.0862816510663002 0.2500706228213478
1.0 0.9133974596215563 0.35
1.0 0.9133974596215564 0.5499999999999999
1.0 0.9184537499731447 0.7459001150420776
1.0 0.3471016110708875 0.100581604400647
1.0 0.08660217628169076 0.4499993693659248
1.0 0.7491088988960755 0.08675295442471612
1.0 0.3463313848719696 0.3999432894978717
1.0 0.2599719391109599 0.3504210570520592
1.0 0.5505266182286094 0.08422590298602681
1.0 0.5100201464585616 0.1832013645877696
1.0 0.2598076211353319 0.6499999999999995
1.0 0.6061426429082728 0.4498449867594272
1.0 0.7794228634059939 0.3499999999999973
1.0 0.1732319108272307 0.4000692127066172
1.0 0.1734480659765264 0.3005693923289559
1.0 0.6927162191563513 0.3998428276129731
1.0 0.181698450888036 0.1849605657946368
1.0 0.4339003554148544 0.6493947943791296
1.0 0.08212753751727725 0.8469321218965824
1.0 0.846566039305338 0.9221793048360533
1.0 0.906145656023032 0.1559066101390897
1.0 0.1491282519097913 0.0832464492428938
1.0 0.6082409310087338 0.7451895713491499
1.0 0.6499999999999998 0.9233581319170274
1.0 0.6991330683018876 0.7886952981163224
1.0 0.7999999999999998 0.1619468829961726
1.0 0.788420361705452 0.8392252876177748
1.0 0.6007214514892731 0.1593063755854259
1.0 0.8464101615137747 0.3999999999999985
1.0 0.8464101615137758 0.3000000000000002
1.0 0.2530470023661588 0.9342167152648447
1.0 0.8464101615137753 0.4999999999999987
1.0 0.8464101615137765 0.5999999999999994
1.0 0.8464101615137766 0.7000000000000005
1.0 0.2698557158514975 0.1674038105676657
1.0 0.45 0.9347437364684013
1.0 0.417312797735536 0.1633889105860611
1.0 0.9267949192431122 0.07320508075688788
1.0 0.07320508075688774 0.07320508075688772
1.0 0.07320508075688754 0.9267949192431125
1.0 0.9267949192431126 0.9267949192431126
1.0 0.6946433733397965 0.8646000335730718
[...]
POINT_DATA 1136
SCALARS solution float 1
LOOKUP_TABLE default
1.0
0.0
1.0
0.0
1.0
0.0
1.0
0.0
0.1
0.2
0.3
0.4
0.5
0.6
0.7
0.8
0.9
1.0
1.0
1.0
1.0
1.0
1.0
1.0
1.0
1.0
0.1
0.2
0.3
0.4
0.5
0.6
0.7
0.8
0.9
0.0
0.0
0.0
0.0
0.0
0.0
0.0
0.0
0.0
0.1
0.2
0.3
0.4
0.5
0.6
0.7
0.8
0.9
1.0
1.0
1.0
1.0
1.0
1.0
1.0
1.0
1.0
0.1
0.2
0.3
0.4
0.5
0.6
0.7
0.8
0.9
0.0
0.0
0.0
0.0
0.0
0.0
0.0
0.0
0.0
0.0
0.0
0.0
0.0
0.0
0.0
0.0
0.0
0.0
1.0
1.0
1.0
1.0
1.0
1.0
1.0
1.0
1.0
0.0
0.0
0.0
0.0
0.0
0.0
0.0
0.0
0.0
1.0
1.0
1.0
1.0
1.0
1.0
1.0
1.0
1.0
0.08477828132215667
0.55
0.9076320725884276
0.45
0.35
0.91114569792819
0.08660254037844384
0.6499999999999999
0.7491826982387223
0.9237016865465129
0.08962961249554277
0.2540211967676216
0.1504237369280876
0.08294974041488148
0.9094302752559207
0.8445559454105696
0.6498637830397869
0.5999772971732975
0.4999962161955494
0.549995585561474
0.4499986336261702
0.4999990365312735
0.5998443274153809
0.5496569527925429
0.4499426648873021
0.4999332696133065
0.3999999999999988
0.599614762535742
0.5499246720248401
0.6489630119845562
0.3499904441478829
0.2955325874841276
0.3492554312473533
0.6999999999999987
0.5998146140015643
0.6973170879364426
0.499956547671066
0.5499999999999973
0.2483833026197326
0.2997289577946022
0.2464604358245061
0.2999999999999979
0.1999999999999993
0.2528554613937111
0.4499999999999972
0.1890185627587989
0.2512262400263001
0.6998372964086343
0.8005910765559353
0.7500841147446835
0.8505076031401131
0.8032720996948348
0.8524960444086985
0.7538603524572066
0.7992114874707068
0.8370418180231486
0.7008598745201187
0.6499999999999974
0.7499999999999976
0.2500706228213478
0.35
0.5499999999999999
0.7459001150420776
0.100581604400647
0.4499993693659248
0.08675295442471612
0.3999432894978717
0.3504210570520592
0.08422590298602681
0.1832013645877696
0.6499999999999995
0.4498449867594272
0.3499999999999973
0.4000692127066172
0.3005693923289559
0.3998428276129731
0.1849605657946368
0.6493947943791296
0.8469321218965824
0.9221793048360533
0.1559066101390897
0.0832464492428938
0.7451895713491499
0.9233581319170274
0.7886952981163224
0.1619468829961726
0.8392252876177748
0.1593063755854259
0.3999999999999985
0.3000000000000002
0.9342167152648447
0.4999999999999987
0.5999999999999994
0.7000000000000005
0.1674038105676657
0.9347437364684013
0.1633889105860611
0.07320508075688788
0.07320508075688772
0.9267949192431125
0.9267949192431126
0.8646000335730718
0.775936269614084
0.2246201859858369
0.08477828132215667
0.55
0.9076320725884276
0.45
0.35
0.91114569792819
0.08660254037844384
0.6499999999999999
0.7491826982387223
0.9237016865465129
0.08962961249554277
0.2540211967676216
0.1504237369280876
0.08294974041488148
0.9094302752559207
0.8445559454105696
0.6498637830397869
0.5999772971732975
0.4999962161955494
0.549995585561474
0.4499986336261702
0.4999990365312735
0.5998443274153809
0.5496569527925429
0.4499426648873021
0.4999332696133065
0.3999999999999988
0.599614762535742
0.5499246720248401
0.6489630119845562
0.3499904441478829
0.2955325874841276
0.3492554312473533
0.6999999999999987
0.5998146140015643
0.6973170879364426
0.499956547671066
0.5499999999999973
0.2483833026197326
0.2997289577946022
0.2464604358245061
0.2999999999999979
0.1999999999999993
0.2528554613937111
0.4499999999999972
0.1890185627587989
0.2512262400263001
0.6998372964086343
0.8005910765559353
0.7500841147446835
0.8505076031401131
0.8032720996948348
0.8524960444086985
0.7538603524572066
0.7992114874707068
0.8370418180231486
0.7008598745201187
0.6499999999999974
0.7499999999999976
0.2500706228213478
0.35
0.5499999999999999
0.7459001150420776
0.100581604400647
0.4499993693659248
0.08675295442471612
0.3999432894978717
0.3504210570520592
0.08422590298602681
0.1832013645877696
0.6499999999999995
0.4498449867594272
0.3499999999999973
0.4000692127066172
0.3005693923289559
0.3998428276129731
0.1849605657946368
0.6493947943791296
0.8469321218965824
0.9221793048360533
0.1559066101390897
0.0832464492428938
0.7451895713491499
0.9233581319170274
0.7886952981163224
0.1619468829961726
0.8392252876177748
0.1593063755854259
0.3999999999999985
0.3000000000000002
0.9342167152648447
0.4999999999999987
0.5999999999999994
0.7000000000000005
0.1674038105676657
0.9347437364684013
0.1633889105860611
0.07320508075688788
0.07320508075688772
0.9267949192431125
0.9267949192431126
0.8646000335730718
0.775936269614084
0.2246201859858369
0.45
0.08477828132215659
0.55
0.90499991188184
0.35
0.08660254037844384
0.6499999999999999
0.9114200486593762
0.7520865171490818
0.08962961249554272
0.2540211967676219
0.9112749022350901
0.8445559454105702
0.08294974041488179
0.1504237369280876
0.9124118462490346
0.6503477528581803
0.5993268128818421
0.4998878021469741
0.5491379565769484
0.4498376264539877
0.4998292638384905
0.5991548143618781
0.549830679700063
0.4499433239230938
0.4999623339371949
0.3999887687928937
0.6000000000000028
0.5499937223228688
0.6499989537204809
0.3500000000000022
0.2955323082582987
0.349253512841868
0.6999998256200822
0.599998779340561
0.6999998072330852
0.4999987502772413
0.5500000000000049
0.2483840914485007
0.2997306819080844
0.246460069552623
0.300000000000004
0.2000000000000012
0.2528557487459585
0.4500000000000049
0.1890185253841206
0.2512262377562208
0.3999673129286861
0.3503985616727863
0.3005369372245718
0.1849458814269961
0.7482048451858305
0.8143043966618604
0.748977904916972
0.8000000000000027
0.7500580611571741
0.8498630310367131
0.8049902359935299
0.858125764297671
0.756400094893057
0.7010360551397519
0.8113904871961125
0.399875377186521
0.3500000000000046
0.1005816044006471
0.2476510925966093
0.44997585251261
0.35
0.0867529481956037
0.9133974596215563
0.745900115042079
0.08422590298602724
0.1832013850636351
0.3999778450507189
0.55
0.4498454108930979
0.7006579198515872
0.6500132393298254
0.6500000000000045
0.6483371811597279
0.1559066101390905
0.08324470110388887
0.9201081741174832
0.8470933150972105
0.161946882996176
0.8380232778161281
0.1593063364863767
0.8392304845413283
0.9326018532398946
0.7000000000000047
0.6000000000000023
0.500000000000001
0.4000000000000005
0.3
0.1674038105676653
0.1633890724469881
0.9381299563793651
0.9267949192431122
0.07320508075688774
0.07320508075688754
0.9267949192431126
0.7770209618385076
0.2246201855318218
0.45
0.08477828132215659
0.55
0.90499991188184
0.35
0.08660254037844384
0.6499999999999999
0.9114200486593762
0.7520865171490818
0.08962961249554272
0.2540211967676219
0.9112749022350901
0.8445559454105702
0.08294974041488179
0.1504237369280876
0.9124118462490346
0.6503477528581803
0.5993268128818421
0.4998878021469741
0.5491379565769484
0.4498376264539877
0.4998292638384905
0.5991548143618781
0.549830679700063
0.4499433239230938
0.4999623339371949
0.3999887687928937
0.6000000000000028
0.5499937223228688
0.6499989537204809
0.3500000000000022
0.2955323082582987
0.349253512841868
0.6999998256200822
0.599998779340561
0.6999998072330852
0.4999987502772413
0.5500000000000049
0.2483840914485007
0.2997306819080844
0.246460069552623
0.300000000000004
0.2000000000000012
0.2528557487459585
0.4500000000000049
0.1890185253841206
0.2512262377562208
0.3999673129286861
0.3503985616727863
0.3005369372245718
0.1849458814269961
0.7482048451858305
0.8143043966618604
0.748977904916972
0.8000000000000027
0.7500580611571741
0.8498630310367131
0.8049902359935299
0.858125764297671
0.756400094893057
0.7010360551397519
0.8113904871961125
0.399875377186521
0.3500000000000046
0.1005816044006471
0.2476510925966093
0.44997585251261
0.35
0.0867529481956037
0.9133974596215563
0.745900115042079
0.08422590298602724
0.1832013850636351
0.3999778450507189
0.55
0.4498454108930979
0.7006579198515872
0.6500132393298254
0.6500000000000045
0.6483371811597279
0.1559066101390905
0.08324470110388887
0.9201081741174832
0.8470933150972105
0.161946882996176
0.8380232778161281
0.1593063364863767
0.8392304845413283
0.9326018532398946
0.7000000000000047
0.6000000000000023
0.500000000000001
0.4000000000000005
0.3
0.1674038105676653
0.1633890724469881
0.9381299563793651
0.9267949192431122
0.07320508075688774
0.07320508075688754
0.9267949192431126
0.7770209618385076
0.2246201855318218
0.0
0.0
0.0
0.0
0.0
0.0
0.0
0.0
0.0
0.0
0.0
0.0
0.0
0.0
0.0
0.0
0.0
0.0
0.0
0.0
0.0
0.0
0.0
0.0
0.0
0.0
0.0
0.0
0.0
0.0
0.0
0.0
0.0
0.0
0.0
0.0
0.0
0.0
0.0
0.0
0.0
0.0
0.0
0.0
0.0
0.0
0.0
0.0
0.0
0.0
0.0
0.0
0.0
0.0
0.0
0.0
0.0
0.0
0.0
0.0
0.0
0.0
0.0
0.0
0.0
0.0
0.0
0.0
0.0
0.0
0.0
0.0
0.0
0.0
0.0
0.0
0.0
0.0
0.0
0.0
0.0
0.0
0.0
0.0
0.0
0.0
0.0
0.0
0.0
0.0
0.0
0.0
0.0
0.0
0.0
0.0
0.0
0.0
0.0
0.0
0.0
0.0
1.0
1.0
1.0
1.0
1.0
1.0
1.0
1.0
1.0
1.0
1.0
1.0
1.0
1.0
1.0
1.0
1.0
1.0
1.0
1.0
1.0
1.0
1.0
1.0
1.0
1.0
1.0
1.0
1.0
1.0
1.0
1.0
1.0
1.0
1.0
1.0
1.0
1.0
1.0
1.0
1.0
1.0
1.0
1.0
1.0
1.0
1.0
1.0
1.0
1.0
1.0
1.0
1.0
1.0
1.0
1.0
1.0
1.0
1.0
1.0
1.0
1.0
1.0
1.0
1.0
1.0
1.0
1.0
1.0
1.0
1.0
1.0
1.0
1.0
1.0
1.0
1.0
1.0
1.0
1.0
1.0
1.0
1.0
1.0
1.0
1.0
1.0
1.0
1.0
1.0
1.0
1.0
1.0
1.0
1.0
1.0
1.0
1.0
1.0
1.0
1.0
1.0
1.0
1.0
1.0
0.3081096881852764
0.11639584986006407
0.0839395241179452
0.10938104857765336
-0.2579581799578747
0.07446054011951748
0.06362114631780717
-0.01074104360761113
0.2972033000200735
-0.061937201917986746
-0.026841878798097425
-0.002216793571607634
0.005126776820401216
0.000998202705262225
-0.001833573296725882
-0.02532528547899665
-0.10658346676452947
-0.208290481712436
-0.17119616301147056
0.017112058535748802
0.1489024509599371
-0.18325197174188032
-0.1723932754270694
-0.30044979298333624
0.15741654168522765
-0.309751702938124
0.3672324018459789
-0.11808197284637538
-0.03860200931653431
0.00442487979916889
-0.03179597187586038
0.02263124354578585
-0.016112693148422817
0.02968502818209728
0.019996343235736343
-0.06733299852781044
0.1617513016555276
-0.006613325504256661
0.03891854195031668
0.0016145156943127871
0.051758059656452936
-0.4353965564330355
0.37704554032413506
-0.015925126827859116
-0.014249490581747546
-0.01932348828268854
-0.01811553781054454
0.1394540931813321
0.035208675301087185
0.013612524632779446
0.007851183077928658
0.0485985008695352
-0.05308535948207927
0.00316021402056215
0.001119059398119136
0.030994478620519992
-0.026775463918076094
-0.1311141203288493
0.030434368173583713
-0.12452008873045389
0.02976128477341176
-0.1866299760255655
0.030246599097101826
-0.048621684206000326
0.09276282628357417
0.24084524226748227
0.11764534314533817
0.7336532199145777
0.08314895610455196
0.013809307172052124
-0.5626185298118535
-0.5734290012470783
0.6456724261130898
-0.412684262185364
0.03620895852910463
0.12249195025726443
0.03149428860705154
0.14690512093045058
0.11799428117552459
0.0475834966486666
0.11340556649937915
-0.008593360072341192
-0.005206962074860464
0.005394634300239077
-0.006112454725153221
0.08115810673969633
0.18171389533344906
0.5205372511820117
1.4329168714798493
0.033354922933447856
0.4364099460205022
0.08334986951561148
0.008134861813218626
-0.14235214726522563
-0.4152093470353734
-0.0020662120965884235
-0.060674302644306406
0.26875451012948565
0.3683289431052829
-0.20962103761253637
0.025164090944529583
-0.012052253084091406
0.16440009947662307
0.012237686927746658
0.0030807239291514225
0.012207044420792838
0.004817157715824444
-0.043071045347541775
-0.04438811352961969
0.12868342296579505
-0.08181871733549656
0.03220053079756206
0.008880924968049795
0.11581010106679544
0.04304291302562769
-0.06014039450561908
-0.05955376386379042
-0.11458931571933363
-0.1855013117673103
0.21633415165909844
0.002651634086265271
-0.018929261287140942
0.06492999740530257
-0.027119233650438345
-0.2242656798639671
-0.02087876331556917
0.1634867996540677
-0.12460961815002838
0.03164700631014929
0.022930456633836017
0.027012656119296645
0.004702920831772898
-0.09046651947786694
-0.012265521515850496
-0.014476868189764697
0.01909036815069255
-0.05625328141147262
-0.3033535498806693
0.006983975046138336
-0.0027242567767032885
0.0048663892408585185
0.08401067572166605
-0.11324403899610715
-0.09090197424817179
0.09819490067067045
0.12977325905654033
0.21384147877522808
0.15048631424781286
0.07882988451770544
-0.3454353974527085
-0.005506308008164941
-0.021953888025916312
-0.009345748879537904
-0.025369009337368985
0.00038876030465734204
-0.012343373213352602
-0.01578050288413487
-0.07153855990470791
-0.22838170351782508
-0.22973141292509272
0.1529342125309797
-0.04531180871726886
0.3887874338399431
0.31944391557526736
0.0038239154954951447
0.0041319824973417504
0.007303921348730976
0.04788149720650322
0.010686563530628993
-0.004851198534081455
-0.013345000098696385
0.0011151741094275005
0.011846946288394597
-0.08058828209802212
-0.08313126244544314
1.200357539647268
0.08721608895506174
-0.2852919844830288
-0.714828886373794
-0.03437577011888084
-0.27966160067088713
-0.11356967735128705
-0.341301007375941
-0.002111770614472948
0.07910030361096823
-0.051552936232612936
-0.2685911193698057
-0.03400818458821854
0.0775464882833668
-0.03862740152888563
-0.057309646079065885
-0.371000938178228
0.15000097271378532
-0.042357573076475016
-0.18221166636378497
0.010720366416624176
-0.005196465231603815
0.08168718248109376
-0.2875069939787417
0.001196096480464425
-0.48585881360996663
0.007085293067340937
-0.03841310628632351
-0.0793015401294288
0.24566702376205451
0.012966450814098009
-0.5229230432545721
-0.20894015370363808
-0.12763701034073807
-0.08585450053509117
0.01672194541657964
0.01294320238945872
0.01972277945135805
-0.02972706375576461
-0.07697977244447347
-0.1607470118026409
0.11340084685850099
0.11080030009887946
0.014908521487694415
-0.037749640772139666
-0.08888738445016053
-0.20795370813176176
-0.5819715931558476
-0.002650285739396119
0.012429724175865079
0.004177268448814842
-0.0759824217379501
-0.0017588488388984617
0.07740952056894171
-0.0450758561943317
0.039676867077817014
-0.21479139860586158
-0.16876653866645558
-0.014057705337431357
0.011243466772489982
-0.0456968201314791
0.10608088755194518
-0.0379682502950039
-0.03875642554746262
-0.0005988030686831581
-0.151862561036746
-0.03379107522933313
0.32965010501383607
0.004556154858568848
0.16629889372124634
0.052732443836634287
0.04668632647428571
0.003121929497632427
0.000503756955832153
0.0003464622638103356
0.05331924827758036
-0.017054802047415364
-0.012602565018504756
-0.0026939659504902143
-0.15701999961194318
-0.05288324127467775
0.14681411101770528
-0.0022557509238302982
0.007122348254095404
-0.0062025721640309416
0.08261602513528558
-0.01714190775392661
0.014972616256649267
0.01379914209589375
0.054176914325391595
0.016440042051874545
0.2677476722046121
0.006684371328711459
0.0031109157995149778
0.05148073734031504
0.030615031321928592
0.01999992922991438
-0.010794385213502816
0.014296915540277665
0.0027192759203417305
0.021805151201492855
0.028109706384011432
0.06370076692895314
0.4101669761315333
0.09619118667010673
-0.015542024445636293
-0.07353051023289646
0.03615453078574157
0.005200018270065207
0.12045944020917213
-0.13470966813817767
0.06663469415653607
0.04004699102102837
-0.013020746060694388
-0.044837204341041006
-0.09237391610858602
-0.12493082291226414
-0.046444281929811065
0.09055442409593735
-0.019322429862119683
0.011815742109959762
-0.042072784335880374
-0.02050374177433714
0.014196840703282892
-0.012245994651861639
-0.09799669429973604
0.08374750848353796
-0.054578015140902825
0.0073506021407825405
0.046333796960016965
-0.011137235244138212
-0.03296752756425716
0.02388385328075953
-0.013255397101248607
-0.004456812525430201
0.01903605382694055
-0.002610628227158812
-0.042145858995556486
-0.03902854032053133
-0.04730173613940183
-0.13228000414496216
0.050924248857974946
-0.12339885704191296
-0.00959052169971151
0.11374855204627775
0.05768044960811729
0.00838280633314005
-0.02845226903934347
0.1424602112105183
0.05993177738823927
0.009362045701660668
-0.007035615707126631
0.017495721763296182
-0.005298985717077499
-0.08564865022406733
0.015894962310049
0.07288513446154536
-0.029959265369368326
-0.003406059977434918
0.027712879942315014
0.02607909299189765
-0.015153529011699486
0.00210280220548828
0.2281008007955409
-0.14519312609027946
0.04483518090580019
-0.010942631488004827
0.030377169589512566
-0.05815932986147835
-0.06723739956862852
0.14420395442756592
0.1997665099102196
-0.006224002492135257
0.061485283838859026
-0.018656812326297546
-0.04349639386523251
0.10192023875477564
-0.09880581662497517
0.03265020812684034
-0.03086538095646226
-0.0024746261742686184
-0.07192680349632737
0.2550799616761846
-0.32728728142536107
0.0772345425490237
-0.04406925003896073
0.0006903558923251916
0.000534296129601611
-0.12335732461808319
0.0022531030057985455
3.753060075724667e-05
0.08388565931914438
-0.04837014725492203
-0.026945464639841855
0.09071231691984144
-0.01972797170194848
0.06161781105085075
0.047201333175942856
0.0014556819146578403
-0.016613158398055758
0.00024379934492921727
0.055524138483201764
0.022901187826731638
-0.0055502114928504655
0.048030183317359795
-0.02434805844709563
0.2702621334832159
0.015593564023431997
-0.008795698613983431
-0.2815078603447999
-0.0026495743609936664
0.00268266609503458
-0.002244173537059482
0.00015013464198958132
0.0026032829507912645
-0.005143051593513865
0.0035355712963490707
-0.014765085293979721
0.027087862999849506
0.06372165613384696
-0.00012376308895611728
0.0005471693108144706
0.1520638028776217
0.21412683050379824
