# vtk DataFile Version 5.1
written by meshio v5.3.5
ASCII
DATASET UNSTRUCTURED_GRID
POINTS 1136 double
0.0 0.0 1.0 0.0 0.0 0.0 0.0 1.0 1.0 0.0 1.0 0.0 1.0 0.0 1.0 1.0 0.0 0.0 1.0 1.0 1.0 1.0 1.0 0.0 0.0 0.0 0.1 0.0 0.0 0.2 0.0 0.0 0.3 0.0 0.0 0.4 0.0 0.0 0.5 0.0 0.0 0.6 0.0 0.0 0.7 0.0 0.0 0.8 0.0 0.0 0.9 0.0 0.1 1.0 0.0 0.2 1.0 0.0 0.3 1.0 0.0 0.4 1.0 0.0 0.5 1.0 0.0 0.6 1.0 0.0 0.7 1.0 0.0 0.8 1.0 0.0 0.9 1.0 0.0 1.0 0.1 0.0 1.0 0.2 0.0 1.0 0.3 0.0 1.0 0.4 0.0 1.0 0.5 0.0 1.0 0.6 0.0 1.0 0.7 0.0 1.0 0.8 0.0 1.0 0.9 0.0 0.1 0.0 0.0 0.2 0.0 0.0 0.3 0.0 0.0 0.4 0.0 0.0 0.5 0.0 0.0 0.6 0.0 0.0 0.7 0.0 0.0 0.8 0.0 0.0 0.9 0.0 1.0 0.0 0.1 1.0 0.0 0.2 1.0 0.0 0.3 1.0 0.0 0.4 1.0 0.0 0.5 1.0 0.0 0.6 1.0 0.0 0.7 1.0 0.0 0.8 1.0 0.0 0.9 1.0 0.1 1.0 1.0 0.2 1.0 1.0 0.3 1.0 1.0 0.4 1.0 1.0 0.5 1.0 1.0 0.6 1.0 1.0 0.7 1.0 1.0 0.8 1.0 1.0 0.9 1.0 1.0 1.0 0.1 1.0 1.0 0.2 1.0 1.0 0.3 1.0 1.0 0.4 1.0 1.0 0.5 1.0 1.0 0.6 1.0 1.0 0.7 1.0 1.0 0.8 1.0 1.0 0.9 1.0 0.1 0.0 1.0 0.2 0.0 1.0 0.3 0.0 1.0 0.4 0.0 1.0 0.5 0.0 1.0 0.6 0.0 1.0 0.7 0.0 1.0 0.8 0.0 1.0 0.9 0.0 0.1 0.0 0.0 0.2 0.0 0.0 0.3 0.0 0.0 0.4 0.0 0.0 0.5 0.0 0.0 0.6 0.0 0.0 0.7 0.0 0.0 0.8 0.0 0.0 0.9 0.0 0.0 0.1 0.0 1.0 0.2 0.0 1.0 0.3 0.0 1.0 0.4 0.0 1.0 0.5 0.0 1.0 0.6 0.0 1.0 0.7 0.0 1.0 0.8 0.0 1.0 0.9 0.0 1.0 0.1 1.0 0.0 0.2 1.0 0.0 0.3 1.0 0.0 0.4 1.0 0.0 0.5 1.0 0.0 0.6 1.0 0.0 0.7 1.0 0.0 0.8 1.0 0.0 0.9 1.0 0.0 0.1 1.0 1.0 0.2 1.0 1.0 0.3 1.0 1.0 0.4 1.0 1.0 0.5 1.0 1.0 0.6 1.0 1.0 0.7 1.0 1.0 0.8 1.0 1.0 0.9 1.0 1.0 0.0 0.4531597093716571 0.08477828132215667 0.0 0.08660254037844384 0.55 0.0 0.5394257192630868 0.9076320725884276 0.0 0.9133974596215562 0.45 0.0 0.0866025403784438 0.35 0.0 0.3490798000983427 0.91114569792819 0.0 0.6499999999999999 0.08660254037844384 0.0 0.9133974596215562 0.6499999999999999 0.0 0.08613067098656116 0.7491826982387223 0.0 0.7482623088816123 0.9237016865465129 0.0 0.2413274345293417 0.08962961249554277 0.0 0.9204077431036599 0.2540211967676216 0.0 0.08467720450558314 0.1504237369280876 0.0 0.8494067683006772 0.08294974041488148 0.0 0.1591825619057401 0.9094302752559207 0.0 0.9045047171897603 0.8445559454105696 0.0 0.08652389547979684 0.6498637830397869 0.0 0.1731919732737799 0.5999772971732975 0.0 0.1732028961763696 0.4999962161955494 0.0 0.2598050724580605 0.549995585561474 0.0 0.259806832259033 0.4499986336261702 0.0 0.346409605254847 0.4999990365312735 0.0 0.3468856718440168 0.5998443274153809 0.0 0.4332748469904136 0.5496569527925429 0.0 0.4330563000320965 0.4499426648873021 0.0 0.5196661994770081 0.4999332696133065 0.0 0.5196152422706625 0.3999999999999988 0.0 0.5198504120743954 0.599614762535742 0.0 0.6062654704841196 0.5499246720248401 0.0 0.605710538209107 0.6489630119845562 0.0 0.4330199682488647 0.3499904441478829 0.0 0.5163472462849928 0.2955325874841276 0.0 0.6056731166514944 0.3492554312473533 0.0 0.5196152422706636 0.6999999999999987 0.0 0.692743730260053 0.5998146140015643 0.0 0.6930455990744984 0.6973170879364426 0.0 0.6928155055388029 0.499956547671066 0.0 0.7794228634059945 0.5499999999999973 0.0 0.4298723602627997 0.2483833026197326 0.0 0.3458879823016457 0.2997289577946022 0.0 0.601276834831931 0.2464604358245061 0.0 0.6928203230275498 0.2999999999999979 0.0 0.3464101615137742 0.1999999999999993 0.0 0.2613952737193371 0.2528554613937111 0.0 0.7794228634059936 0.4499999999999972 0.0 0.6952466250757766 0.1890185627587989 0.0 0.7784372556618795 0.2512262400263001 0.0 0.1731111437946149 0.6998372964086343 0.0 0.1703018238307877 0.8005910765559353 0.0 0.2600576204709331 0.7500841147446835 0.0 0.256972649826711 0.8505076031401131 0.0 0.3478371929248252 0.8032720996948348 0.0 0.4405314356285007 0.8524960444086985 0.0 0.4352414774225546 0.7538603524572066 0.0 0.5262194475699877 0.7992114874707068 0.0 0.6196113524647593 0.8370418180231486 0.0 0.3473233670346225 0.7008598745201187 0.0 0.779422863405995 0.6499999999999974 0.0 0.7794228634059952 0.7499999999999976 0.0 0.0862816510663002 0.2500706228213478 0.0 0.9133974596215563 0.35 0.0 0.9133974596215564 0.5499999999999999 0.0 0.9184537499731447 0.7459001150420776 0.0 0.3471016110708875 0.100581604400647 0.0 0.08660217628169076 0.4499993693659248 0.0 0.7491088988960755 0.08675295442471612 0.0 0.3463313848719696 0.3999432894978717 0.0 0.2599719391109599 0.3504210570520592 0.0 0.5505266182286094 0.08422590298602681 0.0 0.5100201464585616 0.1832013645877696 0.0 0.2598076211353319 0.6499999999999995 0.0 0.6061426429082728 0.4498449867594272 0.0 0.7794228634059939 0.3499999999999973 0.0 0.1732319108272307 0.4000692127066172 0.0 0.1734480659765264 0.3005693923289559 0.0 0.6927162191563513 0.3998428276129731 0.0 0.181698450888036 0.1849605657946368 0.0 0.4339003554148544 0.6493947943791296 0.0 0.08212753751727725 0.8469321218965824 0.0 0.846566039305338 0.9221793048360533 0.0 0.906145656023032 0.1559066101390897 0.0 0.1491282519097913 0.0832464492428938 0.0 0.6082409310087338 0.7451895713491499 0.0 0.6499999999999998 0.9233581319170274 0.0 0.6991330683018876 0.7886952981163224 0.0 0.7999999999999998 0.1619468829961726 0.0 0.788420361705452 0.8392252876177748 0.0 0.6007214514892731 0.1593063755854259 0.0 0.8464101615137747 0.3999999999999985 0.0 0.8464101615137758 0.3000000000000002 0.0 0.2530470023661588 0.9342167152648447 0.0 0.8464101615137753 0.4999999999999987 0.0 0.8464101615137765 0.5999999999999994 0.0 0.8464101615137766 0.7000000000000005 0.0 0.2698557158514975 0.1674038105676657 0.0 0.45 0.9347437364684013 0.0 0.417312797735536 0.1633889105860611 0.0 0.9267949192431122 0.07320508075688788 0.0 0.07320508075688774 0.07320508075688772 0.0 0.07320508075688754 0.9267949192431125 0.0 0.9267949192431126 0.9267949192431126 0.0 0.6946433733397965 0.8646000335730718 0.0 0.8474423707576257 0.775936269614084 0.0 0.8502801632604694 0.2246201859858369 1.0 0.4531597093716571 0.08477828132215667 1.0 0.08660254037844384 0.55 1.0 0.5394257192630868 0.9076320725884276 1.0 0.9133974596215562 0.45 1.0 0.0866025403784438 0.35 1.0 0.3490798000983427 0.91114569792819 1.0 0.6499999999999999 0.08660254037844384 1.0 0.9133974596215562 0.6499999999999999 1.0 0.08613067098656116 0.7491826982387223 1.0 0.7482623088816123 0.9237016865465129 1.0 0.2413274345293417 0.08962961249554277 1.0 0.9204077431036599 0.2540211967676216 1.0 0.08467720450558314 0.1504237369280876 1.0 0.8494067683006772 0.08294974041488148 1.0 0.1591825619057401 0.9094302752559207 1.0 0.9045047171897603 0.8445559454105696 1.0 0.08652389547979684 0.6498637830397869 1.0 0.1731919732737799 0.5999772971732975 1.0 0.1732028961763696 0.4999962161955494 1.0 0.2598050724580605 0.549995585561474 1.0 0.259806832259033 0.4499986336261702 1.0 0.346409605254847 0.4999990365312735 1.0 0.3468856718440168 0.5998443274153809 1.0 0.4332748469904136 0.5496569527925429 1.0 0.4330563000320965 0.4499426648873021 1.0 0.5196661994770081 0.4999332696133065 1.0 0.5196152422706625 0.3999999999999988 1.0 0.5198504120743954 0.599614762535742 1.0 0.6062654704841196 0.5499246720248401 1.0 0.605710538209107 0.6489630119845562 1.0 0.4330199682488647 0.3499904441478829 1.0 0.5163472462849928 0.2955325874841276 1.0 0.6056731166514944 0.3492554312473533 1.0 0.5196152422706636 0.6999999999999987 1.0 0.692743730260053 0.5998146140015643 1.0 0.6930455990744984 0.6973170879364426 1.0 0.6928155055388029 0.499956547671066 1.0 0.7794228634059945 0.5499999999999973 1.0 0.4298723602627997 0.2483833026197326 1.0 0.3458879823016457 0.2997289577946022 1.0 0.601276834831931 0.2464604358245061 1.0 0.6928203230275498 0.2999999999999979 1.0 0.3464101615137742 0.1999999999999993 1.0 0.2613952737193371 0.2528554613937111 1.0 0.7794228634059936 0.4499999999999972 1.0 0.6952466250757766 0.1890185627587989 1.0 0.7784372556618795 0.2512262400263001 1.0 0.1731111437946149 0.6998372964086343 1.0 0.1703018238307877 0.8005910765559353 1.0 0.2600576204709331 0.7500841147446835 1.0 0.256972649826711 0.8505076031401131 1.0 0.3478371929248252 0.8032720996948348 1.0 0.4405314356285007 0.8524960444086985 1.0 0.4352414774225546 0.7538603524572066 1.0 0.5262194475699877 0.7992114874707068 1.0 0.6196113524647593 0.8370418180231486 1.0 0.3473233670346225 0.7008598745201187 1.0 0.779422863405995 0.6499999999999974 1.0 0.7794228634059952 0.7499999999999976 1.0 0.0862816510663002 0.2500706228213478 1.0 0.9133974596215563 0.35 1.0 0.9133974596215564 0.5499999999999999 1.0 0.9184537499731447 0.7459001150420776 1.0 0.3471016110708875 0.100581604400647 1.0 0.08660217628169076 0.4499993693659248 1.0 0.7491088988960755 0.08675295442471612 1.0 0.3463313848719696 0.3999432894978717 1.0 0.2599719391109599 0.3504210570520592 1.0 0.5505266182286094 0.08422590298602681 1.0 0.5100201464585616 0.1832013645877696 1.0 0.2598076211353319 0.6499999999999995 1.0 0.6061426429082728 0.4498449867594272 1.0 0.7794228634059939 0.3499999999999973 1.0 0.1732319108272307 0.4000692127066172 1.0 0.1734480659765264 0.3005693923289559 1.0 0.6927162191563513 0.3998428276129731 1.0 0.181698450888036 0.1849605657946368 1.0 0.4339003554148544 0.6493947943791296 1.0 0.08212753751727725 0.8469321218965824 1.0 0.846566039305338 0.9221793048360533 1.0 0.906145656023032 0.1559066101390897 1.0 0.1491282519097913 0.0832464492428938 1.0 0.6082409310087338 0.7451895713491499 1.0 0.6499999999999998 0.9233581319170274 1.0 0.6991330683018876 0.7886952981163224 1.0 0.7999999999999998 0.1619468829961726 1.0 0.788420361705452 0.8392252876177748 1.0 0.6007214514892731 0.1593063755854259 1.0 0.8464101615137747 0.3999999999999985 1.0 0.8464101615137758 0.3000000000000002 1.0 0.2530470023661588 0.9342167152648447 1.0 0.8464101615137753 0.4999999999999987 1.0 0.8464101615137765 0.5999999999999994 1.0 0.8464101615137766 0.7000000000000005 1.0 0.2698557158514975 0.1674038105676657 1.0 0.45 0.9347437364684013 1.0 0.417312797735536 0.1633889105860611 1.0 0.9267949192431122 0.07320508075688788 1.0 0.07320508075688774 0.07320508075688772 1.0 0.07320508075688754 0.9267949192431125 1.0 0.9267949192431126 0.9267949192431126 1.0 0.6946433733397965 0.864600033573071
[...]
POINT_DATA 1136
FIELD FieldData 1
phi 1 1136 double
1.0 0.0 1.0 0.0 1.0 0.0 1.0 0.0 0.1 0.2 0.2999999999999998 0.4 0.5000000000000004 0.6000000000000008 0.7000000000000006 0.8000000000000006 0.9000000000000004 1.0 1.0 1.0 1.0 1.0 1.0 1.0 1.0 1.0 0.09999999999999999 0.19999999999999996 0.2999999999999998 0.39999999999999986 0.49999999999999983 0.5999999999999993 0.6999999999999991 0.7999999999999998 0.9000000000000001 0.0 0.0 0.0 0.0 0.0 0.0 0.0 0.0 0.0 0.10000000000000009 0.20000000000000012 0.3000000000000002 0.40000000000000036 0.5000000000000007 0.6000000000000006 0.7000000000000004 0.8000000000000003 0.8999999999999999 1.0 1.0 1.0 1.0 1.0 1.0 1.0 1.0 1.0 0.10000000000000002 0.20000000000000007 0.3 0.40000000000000024 0.5000000000000004 0.6000000000000006 0.7000000000000003 0.8000000000000004 0.9000000000000001 0.0 0.0 0.0 0.0 0.0 0.0 0.0 0.0 0.0 0.0 0.0 0.0 0.0 0.0 0.0 0.0 0.0 0.0 1.0 1.0 1.0 1.0 1.0 1.0 1.0 1.0 1.0 0.0 0.0 0.0 0.0 0.0 0.0 0.0 0.0 0.0 1.0 1.0 1.0 1.0 1.0 1.0 1.0 1.0 1.0 0.08477828132215671 0.5500000000000007 0.907632072588428 0.44999999999999996 0.34999999999999964 0.9111456979281906 0.08660254037844382 0.6499999999999991 0.7491826982387233 0.9237016865465125 0.08962961249554277 0.2540211967676215 0.15042373692808758 0.08294974041488144 0.9094302752559213 0.8445559454105696 0.6498637830397878 0.5999772971732984 0.4999962161955499 0.5499955855614748 0.4499986336261706 0.4999990365312742 0.599844327415382 0.5496569527925436 0.4499426648873023 0.49993326961330675 0.39999999999999886 0.5996147625357429 0.5499246720248402 0.6489630119845562 0.3499904441478829 0.2955325874841278 0.3492554312473535 0.7 0.5998146140015643 0.6973170879364423 0.499956547671066 0.5499999999999967 0.24838330261973257 0.29972895779460224 0.2464604358245061 0.2999999999999977 0.1999999999999993 0.25285546139371096 0.44999999999999685 0.1890185627587988 0.25122624002629995 0.6998372964086353 0.8005910765559364 0.7500841147446848 0.8505076031401142 0.8032720996948359 0.8524960444086993 0.7538603524572076 0.7992114874707078 0.8370418180231485 0.7008598745201198 0.6499999999999968 0.7499999999999972 0.2500706228213477 0.34999999999999976 0.5499999999999995 0.7459001150420771 0.10058160440064706 0.44999936936592494 0.08675295442471606 0.3999432894978718 0.35042105705205895 0.08422590298602682 0.18320136458776962 0.650000000000001 0.44984498675942736 0.3499999999999971 0.4000692127066171 0.30056939232895563 0.39984282761297313 0.18496056579463674 0.6493947943791306 0.846932121896583 0.9221793048360531 0.1559066101390897 0.08324644924289382 0.74518957134915 0.9233581319170271 0.7886952981163224 0.16194688299617244 0.8392252876177746 0.1593063755854259 0.399999999999998 0.3 0.9342167152648452 0.4999999999999982 0.5999999999999989 0.6999999999999996 0.16740381056766562 0.9347437364684018 0.1633889105860611 0.07320508075688788 0.07320508075688772 0.926794919243113 0.9267949192431129 0.8646000335730712 0.7759362696140839 0.22462018598583677 0.08477828132215669 0.5500000000000007 0.9076320725884277 0.4500000000000005 0.35000000000000026 0.91114569792819 0.08660254037844387 0.6500000000000002 0.7491826982387226 0.9237016865465133 0.08962961249554284 0.25402119676762147 0.15042373692808772 0.08294974041488151 0.9094302752559204 0.8445559454105699 0.6498637830397873 0.599977297173298 0.49999621619554996 0.5499955855614745 0.4499986336261708 0.4999990365312737 0.5998443274153811 0.5496569527925431 0.4499426648873023 0.49993326961330686 0.399999999999999 0.5996147625357423 0.5499246720248405 0.6489630119845566 0.34999044414788316 0.2955325874841278 0.34925543124735353 0.6999999999999991 0.5998146140015649 0.6973170879364432 0.4999565476710667 0.549999999999998 0.24838330261973277 0.29972895779460235 0.2464604358245061 0.29999999999999805 0.19999999999999943 0.2528554613937114 0.4499999999999977 0.1890185627587988 0.2512262400263001 0.6998372964086345 0.8005910765559356 0.7500841147446838 0.8505076031401131 0.8032720996948349 0.8524960444086986 0.7538603524572068 0.7992114874707071 0.8370418180231489 0.7008598745201188 0.6499999999999979 0.749999999999998 0.25007062282134795 0.3500000000000002 0.5500000000000009 0.7459001150420782 0.10058160440064706 0.44999936936592555 0.08675295442471614 0.3999432894978723 0.3504210570520596 0.08422590298602683 0.1832013645877696 0.6499999999999997 0.44984498675942747 0.34999999999999737 0.4000692127066176 0.3005693923289563 0.3998428276129733 0.18496056579463688 0.6493947943791298 0.8469321218965822 0.9221793048360535 0.15590661013908969 0.08324644924289387 0.7451895713491501 0.9233581319170274 0.7886952981163229 0.16194688299617266 0.8392252876177755 0.15930637558542587 0.39999999999999886 0.30000000000000027 0.9342167152648447 0.5000000000000001 0.6000000000000001 0.7000000000000011 0.16740381056766584 0.9347437364684011 0.16338891058606117 0.07320508075688788 0.07320508075688778 0.9267949192431121 0.9267949192431126 0.8646000335730724 0.7759362696140848 0.22462018598583688 0.4500000000000003 0.08477828132215665 0.5500000000000007 0.9049999118818399 0.3500000000000003 0.08660254037844392 0.6500000000000004 0.9114200486593763 0.7520865171490823 0.0896296124955428 0.2540211967676219 0.9112749022350901 0.8445559454105707 0.08294974041488183 0.15042373692808775 0.9124118462490343 0.6503477528581808 0.5993268128818425 0.49988780214697476 0.5491379565769487 0.4498376264539883 0.4998292638384907 0.5991548143618782 0.5498306797000632 0.4499433239230941 0.49996233393719514 0.3999887687928939 0.6000000000000028 0.5499937223228692 0.6499989537204811 0.35000000000000264 0.2955323082582991 0.34925351284186823 0.6999998256200823 0.5999987793405616 0.6999998072330857 0.49999875027724183 0.5500000000000054 0.24838409144850093 0.2997306819080848 0.24646006955262328 0.30000000000000415 0.20000000000000145 0.25285574874595884 0.45000000000000534 0.18901852538412067 0.25122623775622094 0.3999673129286866 0.35039856167278677 0.30053693722457214 0.18494588142699636 0.748204845185831 0.8143043966618612 0.7489779049169725 0.8000000000000028 0.7500580611571742 0.8498630310367131 0.8049902359935299 0.8581257642976713 0.7564000948930572 0.701036055139752 0.811390487196113 0.39987537718652144 0.3500000000000047 0.1005816044006472 0.24765109259660945 0.4499758525126104 0.3499999999999999 0.0867529481956038 0.9133974596215567 0.7459001150420795 0.08422590298602729 0.1832013850636353 0.3999778450507193 0.5500000000000007 0.44984541089309793 0.7006579198515874 0.6500132393298254 0.6500000000000049 0.6483371811597283 0.15590661013909057 0.08324470110388894 0.9201081741174835 0.8470933150972109 0.16194688299617613 0.8380232778161284 0.15930633648637682 0.8392304845413289 0.9326018532398948 0.7000000000000048 0.6000000000000029 0.5000000000000013 0.4000000000000005 0.30000000000000004 0.16740381056766546 0.16338907244698833 0.9381299563793652 0.9267949192431125 0.07320508075688777 0.0732050807568876 0.9267949192431129 0.777020961838508 0.22462018553182195 0.44999999999999984 0.08477828132215656 0.5500000000000005 0.904999911881841 0.3500000000000001 0.08660254037844384 0.649999999999999 0.9114200486593768 0.7520865171490823 0.0896296124955427 0.25402119676762186 0.9112749022350903 0.84455594541057 0.08294974041488179 0.15042373692808766 0.9124118462490347 0.6503477528581806 0.5993268128818423 0.499887802146974 0.5491379565769483 0.4498376264539879 0.4998292638384906 0.599154814361878 0.549830679700063 0.44994332392309366 0.4999623339371947 0.39998876879289336 0.6000000000000024 0.5499937223228685 0.6499989537204807 0.3500000000000021 0.29553230825829857 0.34925351284186756 0.6999998256200827 0.5999987793405609 0.6999998072330855 0.4999987502772409 0.5500000000000046 0.24838409144850065 0.2997306819080844 0.24646006955262287 0.30000000000000376 0.20000000000000112 0.2528557487459587 0.4500000000000045 0.1890185253841206 0.25122623775622077 0.3999673129286862 0.35039856167278666 0.3005369372245719 0.1849458814269962 0.7482048451858312 0.8143043966618613 0.7489779049169718 0.8000000000000032 0.7500580611571745 0.8498630310367137 0.80499023599353 0.8581257642976713 0.7564000948930576 0.7010360551397524 0.8113904871961131 0.39987537718652055 0.35000000000000436 0.10058160440064708 0.2476510925966094 0.44997585251261024 0.3499999999999999 0.08675294819560375 0.9133974596215569 0.7459001150420783 0.08422590298602722 0.18320138506363498 0.3999778450507191 0.5499999999999997 0.4498454108930974 0.7006579198515878 0.6500132393298257 0.6500000000000041 0.648337181159728 0.15590661013909046 0.0832447011038889 0.9201081741174834 0.8470933150972109 0.16194688299617604 0.8380232778161281 0.15930633648637663 0.8392304845413292 0.9326018532398952 0.700000000000004 0.6000000000000018 0.5000000000000004 0.40000000000000013 0.2999999999999999 0.1674038105676652 0.16338907244698805 0.9381299563793649 0.9267949192431124 0.07320508075688772 0.07320508075688754 0.9267949192431127 0.7770209618385073 0.2246201855318218 0.0 0.0 0.0 0.0 0.0 0.0 0.0 0.0 0.0 0.0 0.0 0.0 0.0 0.0 0.0 0.0 0.0 0.0 0.0 0.0 0.0 0.0 0.0 0.0 0.0 0.0 0.0 0.0 0.0 0.0 0.0 0.0 0.0 0.0 0.0 0.0 0.0 0.0 0.0 0.0 0.0 0.0 0.0 0.0 0.0 0.0 0.0 0.0 0.0 0.0 0.0 0.0 0.0 0.0 0.0 0.0 0.0 0.0 0.0 0.0 0.0 0.0 0.0 0.0 0.0 0.0 0.0 0.0 0.0 0.0 0.0 0.0 0.0 0.0 0.0 0.0 0.0 0.0 0.0 0.0 0.0 0.0 0.0 0.0 0.0 0.0 0.0 0.0 0.0 0.0 0.0 0.0 0.0 0.0 0.0 0.0 0.0 0.0 0.0 0.0 0.0 0.0 1.0 1.0 1.0 1.0 1.0 1.0 1.0 1.0 1.0 1.0 1.0 1.0 1.0 1.0 1.0 1.0 1.0 1.0 1.0 1.0 1.0 1.0 1.0 1.0 1.0 1.0 1.0 1.0 1.0 1.0 1.0 1.0 1.0 1.0 1.0 1.0 1.0 1.0 1.0 1.0 1.0 1.0 1.0 1.0 1.0 1.0 1.0 1.0 1.0 1.0 1.0 1.0 1.0 1.0 1.0 1.0 1.0 1.0 1.0 1.0 1.0 1.0 1.0 1.0 1.0 1.0 1.0 1.0 1.0 1.0 1.0 1.0 1.0 1.0 1.0 1.0 1.0 1.0 1.0 1.0 1.0 1.0 1.0 1.0 1.0 1.0 1.0 1.0 1.0 1.0 1.0 1.0 1.0 1.0 1.0 1.0 1.0 1.0 1.0 1.0 1.0 1.0 1.0 1.0 1.0 0.44996651690550504 0.5889374096867706 0.5175878451447633 0.49253520270304596 0.4803403300514977 0.12570925619937526 0.2225983712947314 0.12469448933286832 0.6190092823980273 0.09353780169732442 0.22184513322450466 0.24452278015074283 0.27314541793998626 0.1935807944429936 0.14493452826117234 0.14936403861847872 0.4498822348030074 0.7205139836106427 0.6396525115360978 0.25042358358729383 0.855294645416448 0.8839561828879183 0.9023483799301796 0.806326380996268 0.9067332982179123 0.6757587841151925 0.8018268623656032 0.5124469208958757 0.7656616518936007 0.3295317650419627 0.212899034253529 0.3038274460769278 0.2005899943186678 0.29869795577221653 0.28509461456845614 0.3208106567089478 0.40002340867173125 0.22897152971856213 0.1087055446093331 0.18254574845359944 0.1355990222954171 0.09487635249105175 0.672259281497404 0.6245848815471654 0.35782568366286704 0.2817201350048779 0.2621737087913378 0.3621669573150559 0.7510440091663777 0.7692136048671705 0.5898880455689512 0.7141864105109789 0.7159915016737124 0.37127725352195545 0.46686267285872046 0.1633595085364496 0.217143531149958 0.10310543114223282 0.5704624555388598 0.4998621578112877 0.6654076731055572 0.5989221754513951 0.10241170443430567 0.10682204161662164 0.15074776249657587 0.7000126216934544 0.8828188741454601 0.8392362252519247 0.7608162657065985 0.7005006975315036 0.8966350994526409 0.32341944012802815 0.8351157236845462 0.8975898418025665 0.09513396931429287 0.32784144545701277 0.7977029554409162 0.7906911267390666 0.8467077730172482 0.7730240953156249 0.45577188457112533 0.32401072760290456 0.3776301949091396 0.45338219307296024 0.11201829977762723 0.20241284212818667 0.281739551892417 0.879586129685666 0.8611542121465767 0.9131424348535911 0.8859032456806926 0.9041225303770647 0.8413511700092364 0.4185919322344807 0.8453775913856003 0.3033819018126132 0.24963636630292335 0.27840840229946173 0.28113414175502194 0.9049013715885978 0.6898498185011419 0.644185441507478 0.7167152123593399 0.7749226014051478 0.25090095511953614 0.2696998647363645 0.19808380723903074 0.18751593387700322 0.8705161929032774 0.9092121825744021 0.7914186365489916 0.5977247450636468 0.4929833885877432 0.5987590196231802 0.6055089033775448 0.334564551747969 0.29959624566904763 0.17581778074953097 0.3738723051177109 0.31208609169741147 0.40263205495256127 0.2752024621614745 0.39272798283872573 0.11950802821905984 0.14958000419565556 0.8990105544933091 0.47655099998955475 0.22847532628499637 0.10772187235516374 0.2979178629496766 0.35266622028488537 0.44015205339400376 0.30382144585394255 0.45933028348442634 0.4017372959456815 0.37127980551610495 0.31004209909806035 0.6279409053535793 0.5750084501989258 0.6778820697789403 0.2863813898308697 0.22643930435356094 0.25982844393820853 0.09520951023325605 0.7180680626579484 0.677020542779853 0.899320131333127 0.8183188071016871 0.9048078261123402 0.8226061188182112 0.7062762907711219 0.3491415525612209 0.8035989886143816 0.4208104966592992 0.38149188411711876 0.3167339666326271 0.15506547540340598 0.12133684901178014 0.6334067045674818 0.7300860781683498 0.7112078032324826 0.8914795628743089 0.8767674398978678 0.11414514718008051 0.8999893154128764 0.16493936100450418 0.11380617960667166 0.14751137963039673 0.3911099331455118 0.5888640901622567 0.096940896553589 0.9006321461521863 0.7998986502194046 0.7874001688726668 0.47900010198034326 0.12423652386489971 0.8877056921295319 0.8783985614027322 0.9056458698082742 0.8492724959878687 0.8922891994526925 0.25767055823074064 0.21120895964993852 0.9021720639202734 0.12440190632540027 0.5689629162512605 0.659484219738566 0.5957697069923756 0.664943479923463 0.11523849872729666 0.24221754855238897 0.14746085703496614 0.7011041497984207 0.4999570912633939 0.8761700944434494 0.10506488982840603 0.15824883137502715 0.289258238878602 0.4867151801788364 0.3001906107127681 0.11023295974328168 0.8364924195230072 0.5171528867150655 0.6213595184726013 0.569220177093367 0.8736168289131911 0.0991088021920489 0.8318833387978914 0.8250742239296532 0.8965840394811506 0.10735120258348917 0.600298594251754 0.6687282451348159 0.593324480964617 0.09900341150952013 0.20596625123780637 0.899174255512835 0.8651453694832407 0.4892624345728943 0.4694238431648472 0.37781134499010055 0.36963513798654857 0.4879907840283524 0.6787591591706004 0.5420995492601881 0.5480612343609024 0.15011398961649436 0.12091946295976515 0.6748997559495421 0.7037014163156852 0.7161399688429441 0.6719271732404065 0.4925408902163604 0.18273933770104583 0.697610366495656 0.12113041400933003 0.4446051773444405 0.363195499712787 0.3813143545980694 0.8931958504133405 0.5670708669453167 0.4028698389444534 0.23256947969245295 0.8749695024180524 0.6119448718725073 0.6552388660741425 0.7035983309722136 0.7396282451227826 0.09356515988426387 0.12074753848588654 0.16965498294253573 0.296868020391073 0.24585484377282174 0.2613311471141477 0.7888362538378043 0.47282923883932004 0.544512564391535 0.5896817733072867 0.5270443088578268 0.4728231985613357 0.5090573145778595 0.37002622193388857 0.7154802591210674 0.6488440336510672 0.759718908768205 0.39537828916222983 0.6393088755410158 0.4999946368398975 0.33860858643037806 0.24328250503985016 0.5999921152954837 0.09984594243308267 0.6158516293162563 0.7037373305163129 0.9044666958324634 0.557683499957538 0.6121686030056323 0.6038419805860711 0.5590285004296489 0.7430093580450456 0.6947247534070964 0.8673503746693433 0.7812322053141021 0.7848514764451322 0.5441260705139555 0.29324729540480254 0.4866868584002437 0.7378453824042095 0.8203295447905605 0.19433512834366778 0.13887912305597874 0.4955602122218997 0.8131504910995737 0.7881746273585615 0.16196007246804978 0.2207569622822868 0.2099657732492336 0.23223216702456112 0.2547611500133997 0.5788909185314726 0.6265151154313364 0.46016074196049267 0.8811373486883273 0.09145305826962712 0.5381749758599568 0.49568275608230894 0.4965859445564896 0.5796924801907597 0.4474930377837792 0.5625581888993383 0.11209557448464745 0.1604924128777652 0.13456788508317624 0.35342375025113515 0.6700137199990878 0.40547891968273014 0.6567658752441083 0.5462505456143956 0.7827021759811319 0.6278587654054528 0.7402486907489452 0.6872505678752662 0.7226530983281271 0.7152942276255869 0.8853910419357992 0.7196737770769837 0.33524493608726297 0.4608393835076607 0.4358278695577172 0.48349495901220185 0.419652938959252 0.4431099928523084 0.49990205695142403 0.6486313217932705 0.6555534964649812 0.4229101037858133 0.8189924083614423 0.10390352483763257 0.3541110270909208 0.848538173062273 0.319387477801307 0.5225171974094318 0.6214125333156464 0.1517603660619914 0.8158034152781044 0.1716084863683126 0.6715396277481067 0.5698254343519774 0.6699276134914188 0.755197244795914 0.5211576288966628 0.8089693782380889 0.39971371352630924 0.3759518499118797 0.28769984304112534 0.3116797208758787 0.35990270603485786 0.5995999192451692 0.42842732934818334 0.9031645747980556 0.4999428167834874 0.26161516122543904 0.41325590498107445 0.49060461462499205 0.8788555800877319 0.32989749513523076 0.16596940637595123 0.7977256786910876 0.8026019263845747 0.7190271857824481 0.32328992045027566 0.25906877989302546 0.17842888588262978 0.8300732240830497 0.7675306759985601 0.3332268944565285 0.30543442804480914 0.71482158331148 0.42247149796315736 0.37880164307913494 0.6892181787477049 0.4907566958759857 0.7383035083631365 0.40723833409518284 0.5881045135191664 0.24280604743929712 0.5139730566234773 0.4873882187518939 0.2108817852647784 0.44764702322242783 0.4894685835546521 0.22750578985669223 0.4402760338665055 0.5818975670348375 0.8205413081135349 0.6945842804821616 0.5229538919212108 0.31820256911730543 0.7484863708123117
