# vtk DataFile Version 5.1
written by meshio v5.3.5
ASCII
DATASET UNSTRUCTURED_GRID
POINTS 1201 double
0.0 0.0 1.0 0.0 0.0 0.0 0.0 1.0 1.0 0.0 1.0 0.0 1.0 0.0 1.0 1.0 0.0 0.0 1.0 1.0 1.0 1.0 1.0 0.0 0.0 0.0 0.1 0.0 0.0 0.2 0.0 0.0 0.3 0.0 0.0 0.4 0.0 0.0 0.5 0.0 0.0 0.6 0.0 0.0 0.7 0.0 0.0 0.8 0.0 0.0 0.9 0.0 0.1 1.0 0.0 0.2 1.0 0.0 0.3 1.0 0.0 0.4 1.0 0.0 0.5 1.0 0.0 0.6 1.0 0.0 0.7 1.0 0.0 0.8 1.0 0.0 0.9 1.0 0.0 1.0 0.1 0.0 1.0 0.2 0.0 1.0 0.3 0.0 1.0 0.4 0.0 1.0 0.5 0.0 1.0 0.6 0.0 1.0 0.7 0.0 1.0 0.8 0.0 1.0 0.9 0.0 0.1 0.0 0.0 0.2 0.0 0.0 0.3 0.0 0.0 0.4 0.0 0.0 0.5 0.0 0.0 0.6 0.0 0.0 0.7 0.0 0.0 0.8 0.0 0.0 0.9 0.0 1.0 0.0 0.1 1.0 0.0 0.2 1.0 0.0 0.3 1.0 0.0 0.4 1.0 0.0 0.5 1.0 0.0 0.6 1.0 0.0 0.7 1.0 0.0 0.8 1.0 0.0 0.9 1.0 0.1 1.0 1.0 0.2 1.0 1.0 0.3 1.0 1.0 0.4 1.0 1.0 0.5 1.0 1.0 0.6 1.0 1.0 0.7 1.0 1.0 0.8 1.0 1.0 0.9 1.0 1.0 1.0 0.1 1.0 1.0 0.2 1.0 1.0 0.3 1.0 1.0 0.4 1.0 1.0 0.5 1.0 1.0 0.6 1.0 1.0 0.7 1.0 1.0 0.8 1.0 1.0 0.9 1.0 0.1 0.0 1.0 0.2 0.0 1.0 0.3 0.0 1.0 0.4 0.0 1.0 0.5 0.0 1.0 0.6 0.0 1.0 0.7 0.0 1.0 0.8 0.0 1.0 0.9 0.0 0.1 0.0 0.0 0.2 0.0 0.0 0.3 0.0 0.0 0.4 0.0 0.0 0.5 0.0 0.0 0.6 0.0 0.0 0.7 0.0 0.0 0.8 0.0 0.0 0.9 0.0 0.0 0.1 0.0 1.0 0.2 0.0 1.0 0.3 0.0 1.0 0.4 0.0 1.0 0.5 0.0 1.0 0.6 0.0 1.0 0.7 0.0 1.0 0.8 0.0 1.0 0.9 0.0 1.0 0.1 1.0 0.0 0.2 1.0 0.0 0.3 1.0 0.0 0.4 1.0 0.0 0.5 1.0 0.0 0.6 1.0 0.0 0.7 1.0 0.0 0.8 1.0 0.0 0.9 1.0 0.0 0.1 1.0 1.0 0.2 1.0 1.0 0.3 1.0 1.0 0.4 1.0 1.0 0.5 1.0 1.0 0.6 1.0 1.0 0.7 1.0 1.0 0.8 1.0 1.0 0.9 1.0 1.0 0.0 0.4531597093716571 0.08477828132215667 0.0 0.08660254037844384 0.55 0.0 0.5394257192630868 0.9076320725884276 0.0 0.9133974596215562 0.45 0.0 0.0866025403784438 0.35 0.0 0.3490798000983427 0.91114569792819 0.0 0.6499999999999999 0.08660254037844384 0.0 0.9133974596215562 0.6499999999999999 0.0 0.08613067098656116 0.7491826982387223 0.0 0.7482623088816123 0.9237016865465129 0.0 0.2413274345293417 0.08962961249554277 0.0 0.9204077431036599 0.2540211967676216 0.0 0.08467720450558314 0.1504237369280876 0.0 0.8494067683006772 0.08294974041488148 0.0 0.1591825619057401 0.9094302752559207 0.0 0.9045047171897603 0.8445559454105696 0.0 0.08652389547979684 0.6498637830397869 0.0 0.1731919732737799 0.5999772971732975 0.0 0.1732028961763696 0.4999962161955494 0.0 0.2598050724580605 0.549995585561474 0.0 0.259806832259033 0.4499986336261702 0.0 0.346409605254847 0.4999990365312735 0.0 0.3468856718440168 0.5998443274153809 0.0 0.4332748469904136 0.5496569527925429 0.0 0.4330563000320965 0.4499426648873021 0.0 0.5196661994770081 0.4999332696133065 0.0 0.5196152422706625 0.3999999999999988 0.0 0.5198504120743954 0.599614762535742 0.0 0.6062654704841196 0.5499246720248401 0.0 0.605710538209107 0.6489630119845562 0.0 0.4330199682488647 0.3499904441478829 0.0 0.5163472462849928 0.2955325874841276 0.0 0.6056731166514944 0.3492554312473533 0.0 0.5196152422706636 0.6999999999999987 0.0 0.692743730260053 0.5998146140015643 0.0 0.6930455990744984 0.6973170879364426 0.0 0.6928155055388029 0.499956547671066 0.0 0.7794228634059945 0.5499999999999973 0.0 0.4298723602627997 0.2483833026197326 0.0 0.3458879823016457 0.2997289577946022 0.0 0.601276834831931 0.2464604358245061 0.0 0.6928203230275498 0.2999999999999979 0.0 0.3464101615137742 0.1999999999999993 0.0 0.2613952737193371 0.2528554613937111 0.0 0.7794228634059936 0.4499999999999972 0.0 0.6952466250757766 0.1890185627587989 0.0 0.7784372556618795 0.2512262400263001 0.0 0.1731111437946149 0.6998372964086343 0.0 0.1703018238307877 0.8005910765559353 0.0 0.2600576204709331 0.7500841147446835 0.0 0.256972649826711 0.8505076031401131 0.0 0.3478371929248252 0.8032720996948348 0.0 0.4405314356285007 0.8524960444086985 0.0 0.4352414774225546 0.7538603524572066 0.0 0.5262194475699877 0.7992114874707068 0.0 0.6196113524647593 0.8370418180231486 0.0 0.3473233670346225 0.7008598745201187 0.0 0.779422863405995 0.6499999999999974 0.0 0.7794228634059952 0.7499999999999976 0.0 0.0862816510663002 0.2500706228213478 0.0 0.9133974596215563 0.35 0.0 0.9133974596215564 0.5499999999999999 0.0 0.9184537499731447 0.7459001150420776 0.0 0.3471016110708875 0.100581604400647 0.0 0.08660217628169076 0.4499993693659248 0.0 0.7491088988960755 0.08675295442471612 0.0 0.3463313848719696 0.3999432894978717 0.0 0.2599719391109599 0.3504210570520592 0.0 0.5505266182286094 0.08422590298602681 0.0 0.5100201464585616 0.1832013645877696 0.0 0.2598076211353319 0.6499999999999995 0.0 0.6061426429082728 0.4498449867594272 0.0 0.7794228634059939 0.3499999999999973 0.0 0.1732319108272307 0.4000692127066172 0.0 0.1734480659765264 0.3005693923289559 0.0 0.6927162191563513 0.3998428276129731 0.0 0.181698450888036 0.1849605657946368 0.0 0.4339003554148544 0.6493947943791296 0.0 0.08212753751727725 0.8469321218965824 0.0 0.846566039305338 0.9221793048360533 0.0 0.906145656023032 0.1559066101390897 0.0 0.1491282519097913 0.0832464492428938 0.0 0.6082409310087338 0.7451895713491499 0.0 0.6499999999999998 0.9233581319170274 0.0 0.6991330683018876 0.7886952981163224 0.0 0.7999999999999998 0.1619468829961726 0.0 0.788420361705452 0.8392252876177748 0.0 0.6007214514892731 0.1593063755854259 0.0 0.8464101615137747 0.3999999999999985 0.0 0.8464101615137758 0.3000000000000002 0.0 0.2530470023661588 0.9342167152648447 0.0 0.8464101615137753 0.4999999999999987 0.0 0.8464101615137765 0.5999999999999994 0.0 0.8464101615137766 0.7000000000000005 0.0 0.2698557158514975 0.1674038105676657 0.0 0.45 0.9347437364684013 0.0 0.417312797735536 0.1633889105860611 0.0 0.9267949192431122 0.07320508075688788 0.0 0.07320508075688774 0.07320508075688772 0.0 0.07320508075688754 0.9267949192431125 0.0 0.9267949192431126 0.9267949192431126 0.0 0.6946433733397965 0.8646000335730718 0.0 0.8474423707576257 0.775936269614084 0.0 0.8502801632604694 0.2246201859858369 1.0 0.4531597093716571 0.08477828132215667 1.0 0.08660254037844384 0.55 1.0 0.5394257192630868 0.9076320725884276 1.0 0.9133974596215562 0.45 1.0 0.0866025403784438 0.35 1.0 0.3490798000983427 0.91114569792819 1.0 0.6499999999999999 0.08660254037844384 1.0 0.9133974596215562 0.6499999999999999 1.0 0.08613067098656116 0.7491826982387223 1.0 0.7482623088816123 0.9237016865465129 1.0 0.2413274345293417 0.08962961249554277 1.0 0.9204077431036599 0.2540211967676216 1.0 0.08467720450558314 0.1504237369280876 1.0 0.8494067683006772 0.08294974041488148 1.0 0.1591825619057401 0.9094302752559207 1.0 0.9045047171897603 0.8445559454105696 1.0 0.08652389547979684 0.6498637830397869 1.0 0.1731919732737799 0.5999772971732975 1.0 0.1732028961763696 0.4999962161955494 1.0 0.2598050724580605 0.549995585561474 1.0 0.259806832259033 0.4499986336261702 1.0 0.346409605254847 0.4999990365312735 1.0 0.3468856718440168 0.5998443274153809 1.0 0.4332748469904136 0.5496569527925429 1.0 0.4330563000320965 0.4499426648873021 1.0 0.5196661994770081 0.4999332696133065 1.0 0.5196152422706625 0.3999999999999988 1.0 0.5198504120743954 0.599614762535742 1.0 0.6062654704841196 0.5499246720248401 1.0 0.605710538209107 0.6489630119845562 1.0 0.4330199682488647 0.3499904441478829 1.0 0.5163472462849928 0.2955325874841276 1.0 0.6056731166514944 0.3492554312473533 1.0 0.5196152422706636 0.6999999999999987 1.0 0.692743730260053 0.5998146140015643 1.0 0.6930455990744984 0.6973170879364426 1.0 0.6928155055388029 0.499956547671066 1.0 0.7794228634059945 0.5499999999999973 1.0 0.4298723602627997 0.2483833026197326 1.0 0.3458879823016457 0.2997289577946022 1.0 0.601276834831931 0.2464604358245061 1.0 0.6928203230275498 0.2999999999999979 1.0 0.3464101615137742 0.1999999999999993 1.0 0.2613952737193371 0.2528554613937111 1.0 0.7794228634059936 0.4499999999999972 1.0 0.6952466250757766 0.1890185627587989 1.0 0.7784372556618795 0.2512262400263001 1.0 0.1731111437946149 0.6998372964086343 1.0 0.1703018238307877 0.8005910765559353 1.0 0.2600576204709331 0.7500841147446835 1.0 0.256972649826711 0.8505076031401131 1.0 0.3478371929248252 0.8032720996948348 1.0 0.4405314356285007 0.8524960444086985 1.0 0.4352414774225546 0.7538603524572066 1.0 0.5262194475699877 0.7992114874707068 1.0 0.6196113524647593 0.8370418180231486 1.0 0.3473233670346225 0.7008598745201187 1.0 0.779422863405995 0.6499999999999974 1.0 0.7794228634059952 0.7499999999999976 1.0 0.0862816510663002 0.2500706228213478 1.0 0.9133974596215563 0.35 1.0 0.9133974596215564 0.5499999999999999 1.0 0.9184537499731447 0.7459001150420776 1.0 0.3471016110708875 0.100581604400647 1.0 0.08660217628169076 0.4499993693659248 1.0 0.7491088988960755 0.08675295442471612 1.0 0.3463313848719696 0.3999432894978717 1.0 0.2599719391109599 0.3504210570520592 1.0 0.5505266182286094 0.08422590298602681 1.0 0.5100201464585616 0.1832013645877696 1.0 0.2598076211353319 0.6499999999999995 1.0 0.6061426429082728 0.4498449867594272 1.0 0.7794228634059939 0.3499999999999973 1.0 0.1732319108272307 0.4000692127066172 1.0 0.1734480659765264 0.3005693923289559 1.0 0.6927162191563513 0.3998428276129731 1.0 0.181698450888036 0.1849605657946368 1.0 0.4339003554148544 0.6493947943791296 1.0 0.08212753751727725 0.8469321218965824 1.0 0.846566039305338 0.9221793048360533 1.0 0.906145656023032 0.1559066101390897 1.0 0.1491282519097913 0.0832464492428938 1.0 0.6082409310087338 0.7451895713491499 1.0 0.6499999999999998 0.9233581319170274 1.0 0.6991330683018876 0.7886952981163224 1.0 0.7999999999999998 0.1619468829961726 1.0 0.788420361705452 0.8392252876177748 1.0 0.6007214514892731 0.1593063755854259 1.0 0.8464101615137747 0.3999999999999985 1.0 0.8464101615137758 0.3000000000000002 1.0 0.2530470023661588 0.9342167152648447 1.0 0.8464101615137753 0.4999999999999987 1.0 0.8464101615137765 0.5999999999999994 1.0 0.8464101615137766 0.7000000000000005 1.0 0.2698557158514975 0.1674038105676657 1.0 0.45 0.9347437364684013 1.0 0.417312797735536 0.1633889105860611 1.0 0.9267949192431122 0.07320508075688788 1.0 0.07320508075688774 0.07320508075688772 1.0 0.07320508075688754 0.9267949192431125 1.0 0.9267949192431126 0.9267949192431126 1.0 0.6946433733397965 0.864600033573071
[...]
POINT_DATA 1201
FIELD FieldData 1
phi 1 1201 double
1.0 0.0 1.0 0.0 1.0 0.0 1.0 0.0 5.60279110645242e-07 -1.093385966595799e-05 4.7022910640065794e-05 0.0002629143299934573 -0.0003892227770059744 -0.004155742033661326 0.00895197624727229 -0.04705626626799965 0.30729621355523157 1.0 1.0 1.0 1.0 1.0 1.0 1.0 1.0 1.0 0.0009347042215675264 0.0013591385976864387 0.002117979751212807 0.0020661708523003613 0.013867378800599663 0.032701291756704005 0.050397612585124846 0.2230774808875785 0.45723672464991916 0.0 0.0 0.0 0.0 0.0 0.0 0.0 0.0 0.0 0.00020612592584146332 0.0008404752475623757 0.003484305314170881 0.012011795540718996 0.016849231631316346 0.0342426359355559 0.07112296658116525 0.14494507460641834 0.29915142198882916 1.0 1.0 1.0 1.0 1.0 1.0 1.0 1.0 1.0 0.023734081866116526 0.08132451835995379 0.07262292711402106 0.1978113626875999 0.20736563368414515 0.3893808502184605 0.49873625575759545 0.4543923240448454 0.771550685450928 0.0 0.0 0.0 0.0 0.0 0.0 0.0 0.0 0.0 0.0 0.0 0.0 0.0 0.0 0.0 0.0 0.0 0.0 1.0 1.0 1.0 1.0 1.0 1.0 1.0 1.0 1.0 0.0 0.0 0.0 0.0 0.0 0.0 0.0 0.0 0.0 1.0 1.0 1.0 1.0 1.0 1.0 1.0 1.0 1.0 8.424383349104696e-06 -0.0001568558786191463 0.4310587977659149 0.009334718498756599 0.0003595684071091419 0.226923297867751 9.501734573667313e-05 0.03992333817222404 -0.00803271090761265 0.6366829973719318 4.4262710070010925e-06 0.0017291340767003297 -1.5827034773761914e-06 0.00020649049342601672 0.46628715718617814 0.24068242516027175 0.005798447657121523 0.003335682142488544 0.0005270100081946252 0.0020143673051084693 0.0012769434494484064 0.005954690046924621 0.017660363798363096 0.01571219160203284 0.00426390138551011 0.008091611680717896 0.0009652897454661465 0.022898172471689356 0.012530259899956465 0.03890182295027762 0.0007663566365731393 0.0015887998448157225 0.003218802880871202 0.04094365243608738 0.040171811947290706 0.07439393367453984 0.01983916280000206 0.014680967268690528 0.0006888699884038364 0.0006998947478211152 0.0013631890986446126 0.006026306560951503 0.0001424542409148638 9.961547797552335e-05 0.0063117475588429775 0.0011051394120707508 0.0007812591849101908 0.001829351021169579 0.06497752115310332 0.006208755609462659 0.07465853405277148 0.20005449844307066 0.24240950416742538 0.07847164220520031 0.13344646044370229 0.23187089834826116 0.05447626478146779 0.008646431167285732 0.11142356402679432 7.90243687497566e-06 0.003926102895707299 0.022927062917998845 0.09543074751669449 3.7051709158375165e-05 0.00016844901000603334 0.00035507799586090814 0.0020345470416989943 0.00023213255380009199 7.287669537298823e-05 0.00013652546781291126 -0.0004249625204185352 0.006102875232112883 0.007826144173331714 0.0009699505197316848 0.000200090061895851 0.0056081635645548935 3.243374213027523e-05 0.07340044113857748 0.062046805637360626 0.3918783808662149 0.000818402803084062 3.897495108224096e-06 0.06054783043538187 0.333124207511722 0.0919557128076944 0.0004225201533357987 0.2668344870906725 0.0003151553412604004 0.006924661208442806 0.004792854835979195 0.32218164486789813 0.008857074959854204 0.021199519290774644 0.054206662283109115 2.7941380628950835e-05 0.6620741238634723 0.00032997952408698783 0.00023101567162666254 8.275284488749884e-07 0.35437256192702504 0.6674006056708726 0.31403677395291263 0.03337424420057323 0.0020888601653915612 0.0056984098788255885 0.054847247667908806 0.7335417510353099 0.22376977069102444 0.009637800300681565 0.6626836166823776 0.011024895660984397 0.4564463286152858 0.1431373378471163 0.8281409584404517 0.0006429076084465608 0.08578195826294353 0.001279769317945537 0.009444342806506328 0.538834305254404 0.6208411175959928 0.056745666344812484 0.08351079047928843 0.01573229487458284 0.06486667204245895 0.03517714980480523 0.07097770152495422 0.13724039866850998 0.08970974844807693 0.09086403538659578 0.13832523299146465 0.08291738855091915 0.2886279555569937 0.27826080295057304 0.3102547258579239 0.034463256422121405 0.050198288583913536 0.05157297246665564 0.35066600178574264 0.31649212320050807 0.469007925012194 0.2074983802847477 0.27678495627804234 0.017305515237582312 0.021521998446824356 0.038991921580618275 0.04772012924526313 0.017807008174002853 0.004941595983672334 0.13995122890699951 0.03452185174071697 0.05615819228880178 0.12300373525615046 0.2449821756201158 0.17419988600953443 0.38572856916271586 0.3561631149474238 0.5266506066703671 0.3146346883703017 0.428481751410093 0.5946027245697737 0.12997567625984377 0.3679817401666252 0.48186966861627784 0.0012933147609167491 0.12794671769337213 0.3665588099074286 0.500777002617791 0.002534221343566856 0.01579471267827903 0.012824480970833028 0.0280012937500303 0.004571630388605969 0.003352892859303063 0.02029440134947491 0.07532400056921447 0.14000966806189402 0.06693286148163392 0.017080020566051346 0.00385065225002287 0.11817112534724833 0.001606405984811057 0.19019784962572087 0.187188858450897 0.9326192096239284 0.0564014297790126 0.0002203468645626288 0.462073305386686 0.859340457572223 0.5008325405782733 0.0321206275758727 0.6697038022771592 0.01836737301305329 0.18731184795287537 0.09457992566406653 0.7836716240255064 0.2597236996209633 0.4117393762485548 0.5117697154664209 0.0027694050723037593 0.7171612016518294 0.009087750551704932 0.012719714334812967 7.41697221264218e-05 0.5700211885680383 0.8407417939443382 0.5996274082683586 0.6554494280449448 0.04894388760078143 0.00026620964709318665 2.625458080965237e-05 0.025553144486181664 0.2131252941725408 0.0032422410872811266 -1.6499384939164573e-07 0.006500209702052331 0.6682478924084293 0.21213914168717773 0.00016712241418260547 2.3599917142125383e-05 0.32746574598343103 0.10725303054412462 2.129115352245917e-06 0.00033686159367513015 0.5697578124727418 0.0801440804227638 0.02678798418343145 0.015207577339143246 0.015727321225046376 0.009695647512353205 0.010933129635412937 0.01807252374095905 0.009796371803117406 0.006890997396673318 0.008699231369840339 0.0031810663905216053 0.01249037607836406 0.00492408330742732 0.014008532867628348 0.0013949586408187017 0.0009114218409793803 0.00044134726707460053 0.05767789005791578 0.0025027310328742365 0.025076574259597743 0.001314825619956651 0.0027765831799617564 0.0006441036653938979 0.0008173908659455038 2.253999111838327e-05 0.0002134294317946234 5.2198402146395425e-05 0.0018882615542597082 3.141953864358704e-05 7.27536598019565e-05 5.917764244458769e-05 0.005414946241544875 0.002388134454582657 0.0025835692413853843 0.0012608846322105947 0.06068877179962687 0.043046209805253074 0.05192109337687843 0.059283114445036734 0.020852658930681733 0.15710854292010978 0.14914210574470427 0.4080292538287587 0.15079621465438062 0.05006907827978303 0.3295501001947647 0.001090099337034077 0.00017626953639807012 0.00026003550025526455 0.0015086252236735488 0.009747464959529092 0.00033567146850737613 4.4309038494395255e-06 0.4326773594854703 -0.0008316377398905328 5.523370921957703e-05 0.00021977262943664557 0.004006129990532542 0.0014969573362108328 0.0027936199479259532 0.11996747402488128 0.03126514062590691 0.004705670305425734 0.054175623898110724 6.255087561174668e-06 0.00014678274650412997 0.2533339680302528 0.22673602281172775 2.8362092490723346e-05 0.08278065008473809 7.806509115313327e-06 0.1704023019526708 0.9591019645087216 0.0022079338505178285 0.00018837564072056873 0.0009462819309924352 0.0004438454827373905 0.00017384962368067268 0.0006762081383093884 0.000524167237895042 0.29628768689060947 0.6839314239067671 5.323987627422816e-07 0.00011522348439641154 0.4243412361012832 0.13504679055478763 2.949604504927472e-05 0.006870019039763481 0.007927140441352148 0.3061016757694145 0.8635826302950027 0.08792614282321351 0.0034242311908873222 0.0741443281386719 0.6906796226456164 0.5029006081702209 0.00789348174090809 0.001249200326659879 0.7075464505895575 0.2488388242394122 0.000678918525889456 0.03869947900218494 0.8626702849999811 0.4285739787169755 0.3851437832451267 0.19709668530838667 0.2425744541258984 0.14647755703995685 0.19396956201894006 0.2794625965528369 0.19160127923168832 0.07597661049800455 0.14206719532689543 0.06060136247692732 0.15162767795680804 0.12775635879352995 0.1995647067100127 0.063951516972805 0.052368816582582876 0.04117570698918179 0.36218313140737246 0.08496742908844904 0.22896154521671727 0.06045990564482473 0.07524968418300153 0.04261351485969257 0.049728185463951975 0.02591933910582332 0.012800000019101487 0.03526404362375816 0.07226704874289969 0.03224891975769884 0.01131035401508158 0.009655670135423698 0.15109814160712676 0.08132455627402155 0.06694868294406117 0.027285468053991953 0.28552782041590424 0.36904017452485494 0.1641632437914932 0.6222974932144232 0.3154301553268232 0.6365853522358053 0.5359156691025367 0.7512373454095904 0.5027456563392715 0.4650404426224059 0.6114413228188866 0.034193833102625804 0.011812323851235663 0.013520013326872013 0.050309259271851765 0.19425583575396144 0.005011806498041319 0.0010197952307587346 0.8042031471024729 0.13032911203419392 0.002799493319518973 0.0049038355167622845 0.10964408739282745 0.028153310383354422 0.07499731753949279 0.41381104741239727 0.27250800598551317 0.08546764828802071 0.352414190272984 0.0008785551280232905 0.009202347618911349 0.5722915685750969 0.6896753048676844 0.0037497662519661587 0.2553961698499024 0.00791136926666124 0.642241690343908 0.8746042078263165 0.05812398549236326 0.0447827559063856 0.01312736589856109 0.008847639904347369 0.006169538696175371 0.016085392949140374 0.02938249049542332 0.8854420935022691 0.7010682767531898 0.0002467820921038961 0.006185555150905244 0.9262075485272939 0.14133485854841 -0.0007837178377430243 0.0 0.0 0.0 0.0 0.0 0.0 0.0 0.0 0.0 0.0 0.0 0.0 0.0 0.0 0.0 0.0 0.0 0.0 0.0 0.0 0.0 0.0 0.0 0.0 0.0 0.0 0.0 0.0 0.0 0.0 0.0 0.0 0.0 0.0 0.0 0.0 0.0 0.0 0.0 0.0 0.0 0.0 0.0 0.0 0.0 0.0 0.0 0.0 0.0 0.0 0.0 0.0 0.0 0.0 0.0 0.0 0.0 0.0 0.0 0.0 0.0 0.0 0.0 0.0 0.0 0.0 0.0 0.0 0.0 0.0 0.0 0.0 0.0 0.0 0.0 0.0 0.0 0.0 0.0 0.0 0.0 0.0 0.0 0.0 0.0 0.0 0.0 0.0 0.0 0.0 0.0 0.0 0.0 0.0 0.0 0.0 0.0 0.0 0.0 0.0 0.0 0.0 1.0 1.0 1.0 1.0 1.0 1.0 1.0 1.0 1.0 1.0 1.0 1.0 1.0 1.0 1.0 1.0 1.0 1.0 1.0 1.0 1.0 1.0 1.0 1.0 1.0 1.0 1.0 1.0 1.0 1.0 1.0 1.0 1.0 1.0 1.0 1.0 1.0 1.0 1.0 1.0 1.0 1.0 1.0 1.0 1.0 1.0 1.0 1.0 1.0 1.0 1.0 1.0 1.0 1.0 1.0 1.0 1.0 1.0 1.0 1.0 1.0 1.0 1.0 1.0 1.0 1.0 1.0 1.0 1.0 1.0 1.0 1.0 1.0 1.0 1.0 1.0 1.0 1.0 1.0 1.0 1.0 1.0 1.0 1.0 1.0 1.0 1.0 1.0 1.0 1.0 1.0 1.0 1.0 1.0 1.0 1.0 1.0 1.0 1.0 1.0 1.0 1.0 1.0 1.0 1.0 0.07143467421637446 0.019468285524590668 0.19268002486678054 0.16206570170777357 0.0024039931707254265 0.318200366875104 0.021353486633646522 0.10347436328283065 0.14707342945178575 0.04982438635242615 0.45363290708127196 0.016357745708957178 0.020321207633710054 0.09478873350139609 0.083256824144519 0.007607536761268441 0.4512400928167587 0.3344778878379609 0.4471278123650811 0.0036225886168288913 0.04301783237464419 0.029048939837642427 0.022266169791002453 0.02591921933154006 0.2020504610918851 0.26396103106063135 0.17256533805379706 0.004316568904204591 0.0007998551929437507 0.04545630314737806 0.034319752615378896 0.005155395854004111 0.5332467528899133 0.00014347392998027413 0.008023218567426913 0.38181720705465894 0.2222104049127827 0.1326374295384938 0.21094446207306128 0.10999240863873569 0.029909559467795367 0.017211109817527756 0.4626906169083661 0.03748764666692518 0.25456856478808626 0.0019427572792651364 0.000805373528720163 0.02080193581131783 0.00690965189745857 0.2199793294574976 0.006302317569530185 0.14341363328584106 0.01729908528793077 0.004264221427842735 0.07557533590120358 0.16012680900663745 0.008035413382113764 0.033996274579566624 0.007334940838223674 0.021830788614635988 0.13605388549814942 0.04052521784395046 0.08007592886090031 0.4998622585150622 0.0012509504714130469 0.006861506899402473 0.3005769109717887 0.02830817877845434 0.06251044047070936 0.12593568808621772 0.09964873791357612 0.054488473976429364 0.006189621171305694 0.08242034630319824 0.01727332587725762 0.596591477743946 0.09147434631660545 0.0007332534296967528 0.02661078642913374 0.3281668757615782 0.00043060751830220547 0.014842962475775748 0.0004682998216958423 8.974335709890696e-05 0.1288423362892565 0.316845185544597 0.06877720670977475 0.46266587605529075 0.015966264981584193 0.3906176473774352 0.35104039799457276 0.22921144171195101 0.0036260349319606616 0.012106610089412814 0.04278129589993053 0.007441319814297814 0.0031400721648955966 0.3836447703799455 0.48523585392681523 0.07073637152039373 0.05039489704924814 0.05882476023423194 0.0002904203183545448 0.04329753190615384 0.0013600967274671775 0.0035144789858769783 0.6401412923771865 0.0033143792574304573 0.2788532705366964 0.034412980239909546 0.00990595418027543 0.5001527165410384 0.0001876389913674988 0.0003961962281151077 0.08914318231969576 0.5426665571976351 0.004331088514439112 0.11781266031917673 9.394568945884948e-05 0.012618069627967528 0.010356100653352721 0.05584890127619583 0.14971930540905673 0.0022791040312406547 0.27294737392091467 0.037912018173897374 0.0002441880287841462 0.0069780549668474745 0.03859114418937401 0.6518987818321957 0.4138532244122263 0.008512661453465426 0.11652394694441284 0.10725926236338985 0.09480277338414109 0.014952820876689104 0.13650975500519058 0.3640790480066673 0.022024134066534563 0.013407118794199771 0.24116732521269332 7.780895335193267e-05 0.009424815321708555 0.5640390431420313 0.4205954378327009 0.009743718248930031 0.03643554055082536 0.5062348380900257 0.00013546823312460667 0.11982796565798239 0.016237852772596498 0.006098617746677703 0.6666177671822787 0.01430505230458128 0.0010340248194205665 0.06164173501157806 0.0016055460842992833 0.286627933166456 0.09090831704714966 0.0062194990229253256 0.32032960081509176 0.13960626866981463 0.11228782254515883 0.5192636983127193 0.0004405786670047295 0.043750890137974986 0.14615436499180057 7.330022446503889e-05 0.052977526694890455 0.06084174720165293 0.3510905519614055 0.16206034783187606 0.33639427488054297 0.027907413695977382 0.06904030427623559 0.010248566899714331 0.0013836863021582232 0.01382816969111625 0.03645461742430136 0.06909888463479001 0.03532165536450549 5.648153865203431e-05 0.003621611044074726 0.0007952344494809275 0.03058871437192994 0.003052393975354236 0.49617667456085013 0.003088775572560337 8.63860249266732e-06 0.5974877110854648 0.6593587041794057 0.09912041826845434 0.3038596958784573 0.0008237246558311997 0.06380145236791482 0.5490640439432716 0.005691719125598278 0.0008473937012493349 0.018955571175011333 0.05551501021882432 0.015979969944091663 0.042661625964028504 0.03012386029761632 0.00937927233887703 -0.00808988518101852 0.05210306050369393 0.25460823271741395 0.03491973896479697 0.10776525334245628 0.17881523552590456 0.014000821432593501 0.6803859097219187 0.022025585247710165 0.020174348810649757 0.3615250957269037 0.009350919977404412 0.0014528764796518123 0.0358670720501125 0.011493787828952448 0.051886108907418946 0.00080768511846459 0.00043163947859702425 6.0488475560612554e-06 0.17428414421857055 0.004144554549311173 0.21446023796140343 0.22162882224893735 0.002745822613185304 0.33296391517224316 0.02064984180536799 0.26027712912299783 0.019268110735654733 0.1312813830289173 0.004303454178822611 0.0062482439441658615 0.18973797981033869 0.02113857617811491 0.005169082658727665 0.26651432215687243 0.0021181810775664214 0.003911897761369618 0.00030649048572325483 0.4114960020559879 0.5147278822079612 0.49192869919197524 0.28830952806611876 0.5719533750665032 0.2271458049044061 0.0006715001572674809 0.02041854062116838 0.051458788957208235 0.0009537907581505322 0.00457565783426947 0.12418153267275191 0.002218277158023025 0.0015319377824134113 0.0010203302716291654 0.005352289356793256 0.0008709258971001336 0.2435053494511312 0.13649210090806094 0.003943863760917223 5.5218787666751054e-06 5.685996432492902e-06 0.45815227463525754 0.00029630268086300445 0.029547385214698706 0.002685814130620991 0.04345888854885455 0.0217837950566378 0.17145293765110076 0.045715174424935556 0.00031007701993525675 0.003334529316193843 0.0019935746538775577 0.24382629558905153 0.16892348905550875 0.030021833811399733 0.010265209579280243 0.0244018940568717 0.5904003932285637 0.047342982640169215 0.016992026848407355 0.00023496152514206195 0.08105553221139397 0.00245653479224605 0.0006253065406384274 0.12254997899900376 0.11091620972060628 0.3455063129232652 0.007113465264376185 0.00014357957537611846 0.007107783226359985 0.031521700067029 0.015684135307772077 0.00018473326784933434 0.05337399713333807 0.00019540778387761135 0.0005955329170151521 0.00016384085263199092 0.0005973799449244671 0.1497958484993993 0.07572332196479338 0.15091084771368699 0.5377486259952583 0.014155285169213376 0.034388547592365586 0.010401969107693197 0.1697992203072473 0.04404186252983319 0.19958485547769944 0.0029188316409576457 0.3467529696239833 0.008591141583014016 0.0005951671405127117 0.04474117742204299 0.0019159272684639626 0.03233434466186258 0.013481698463533469 0.0001885891845273729 0.006789978073467827 0.691351799361564 0.1020756765728754 0.10550110933881938 6.590896240979993e-06 0.5106566830457011 0.447982525344046 0.6507010656227349 0.0704224655001046 0.15199321950562805 0.24038421973750454 0.0011555296031841558 0.0003577620247972943 0.0016151254508000286 0.08346752045993605 0.5700148085247582 0.5407889178817369 0.02015819409662405 0.003914779114762713 0.7298423012768968 0.13587925513181132 0.23803490870800828 0.08284725678168046 0.07792262150325698 0.03120199246413779 0.00033486235882933355 0.00040221076239498255 0.15918458199334204 0.32539637604008 0.11700317081506635 0.003760755997341047 0.13622421204097787 0.11515192200329616 0.11057167230032061 0.00029454541318910067 0.002178212161723432 0.5351508437401252 2.7075760751145104e-05 0.0031337426378843986 0.032286516715426455 0.008018506543960248 0.06755906926597564 0.003120754118181575 0.009217311839978926 0.14592419495061545 0.7664403036758557 0.12898654231192103 0.20457995072108132 0.12151632126291247 0.003340249074047577 0.10977651138767694 0.007324472548044495 0.5650787274102061 0.448791084615649 0.013149147233470979 0.002001624089854552 0.16849303136977983 0.0004784210972469437 0.009545534575362672 0.00024576226794134187 0.1721297053344833 0.06344584395985005 0.014200817350058934 0.00027468707796831705 0.7025464541151589 2.9035960947234277e-05 0.016601009452293015 0.002176266034320953 0.023450719662066827 0.009844785060921022 0.4246687970886698 0.17978886515607762 0.00853746083046607 0.00198091979778605 0.058372540949371984 0.00027598837521214197 0.19736562164910088 0.0162889166143961 0.22200913853277754 0.011891744893904672 6.254427541239493e-05 0.3660618260663967 0.03542562749868086 0.604767906831467 0.0006651705185591468 0.016490534976132867 0.3607056975262983 0.000730180736483572 0.06337479356032313 0.31706514299905825 0.007450059587464513 0.1615394656294116 0.018411579624805566 0.038320886746267165 0.0004947699994345553 0.6834731639852851 0.004619470884318688 0.0533136826830834 0.3809705060305537 0.005025141760316429 0.160727163383006 0.016297199661979806 0.7176839431840852 0.10757286569716229 0.007148333448107176 2.589476677642095e-06 0.17197443406278623 0.0732966952351687 0.00192062027640381 0.0058341722551565 0.0330755825632157 0.1145424814831214 0.6784280122539645 7.927735539616497e-06 0.009042639473510968 0.0339163336540807 0.5053462531376027 0.03730353051578429 0.08308465944413611 0.0036760101805177877 0.07200972935952996 0.005317385854085584 0.03508063075570438 1.183351176396924e-05 0.0005849142303383768 0.027575262109058404 0.00022400556154266994 0.029961058548524797 -0.000847135599317203 0.00022755233287824055 0.14157710639365106 0.21017385330885613 0.6672063356530034 0.016529984728136726 0.0009204258438538664 8.829675276018263e-05 0.04211415014239924 0.004429439488552194 0.2833274101783231 0.760605765235913 0.13759353948202105 0.005549584573055318 0.004676875490835854 0.009954604735488495
