# vtk DataFile Version 3.0
FEM Solution
ASCII
DATASET UNSTRUCTURED_GRID
POINTS 445 float
0.0 0.0 1.0
0.0 0.0 0.0
0.0 1.0 1.0
0.0 1.0 0.0
1.0 0.0 1.0
1.0 0.0 0.0
1.0 1.0 1.0
1.0 1.0 0.0
0.0 0.0 0.1428571428571426
0.0 0.0 0.2857142857142854
0.0 0.0 0.4285714285714277
0.0 0.0 0.57142857142857
0.0 0.0 0.7142857142857132
0.0 0.0 0.8571428571428565
0.0 0.1428571428571426 1.0
0.0 0.2857142857142854 1.0
0.0 0.4285714285714277 1.0
0.0 0.57142857142857 1.0
0.0 0.7142857142857132 1.0
0.0 0.8571428571428565 1.0
0.0 1.0 0.1428571428571426
0.0 1.0 0.2857142857142854
0.0 1.0 0.4285714285714277
0.0 1.0 0.57142857142857
0.0 1.0 0.7142857142857132
0.0 1.0 0.8571428571428565
0.0 0.1428571428571426 0.0
0.0 0.2857142857142854 0.0
0.0 0.4285714285714277 0.0
0.0 0.57142857142857 0.0
0.0 0.7142857142857132 0.0
0.0 0.8571428571428565 0.0
1.0 0.0 0.1428571428571426
1.0 0.0 0.2857142857142854
1.0 0.0 0.4285714285714277
1.0 0.0 0.57142857142857
1.0 0.0 0.7142857142857132
1.0 0.0 0.8571428571428565
1.0 0.1428571428571426 1.0
1.0 0.2857142857142854 1.0
1.0 0.4285714285714277 1.0
1.0 0.57142857142857 1.0
1.0 0.7142857142857132 1.0
1.0 0.8571428571428565 1.0
1.0 1.0 0.1428571428571426
1.0 1.0 0.2857142857142854
1.0 1.0 0.4285714285714277
1.0 1.0 0.57142857142857
1.0 1.0 0.7142857142857132
1.0 1.0 0.8571428571428565
1.0 0.1428571428571426 0.0
1.0 0.2857142857142854 0.0
1.0 0.4285714285714277 0.0
1.0 0.57142857142857 0.0
1.0 0.7142857142857132 0.0
1.0 0.8571428571428565 0.0
0.1428571428571426 0.0 0.0
0.2857142857142854 0.0 0.0
0.4285714285714277 0.0 0.0
0.57142857142857 0.0 0.0
0.7142857142857132 0.0 0.0
0.8571428571428565 0.0 0.0
0.1428571428571426 0.0 1.0
0.2857142857142854 0.0 1.0
0.4285714285714277 0.0 1.0
0.57142857142857 0.0 1.0
0.7142857142857132 0.0 1.0
0.8571428571428565 0.0 1.0
0.1428571428571426 1.0 0.0
0.2857142857142854 1.0 0.0
0.4285714285714277 1.0 0.0
0.57142857142857 1.0 0.0
0.7142857142857132 1.0 0.0
0.8571428571428565 1.0 0.0
0.1428571428571426 1.0 1.0
0.2857142857142854 1.0 1.0
0.4285714285714277 1.0 1.0
0.57142857142857 1.0 1.0
0.7142857142857132 1.0 1.0
0.8571428571428565 1.0 1.0
0.0 0.5010520020224186 0.1231105411755159
0.0 0.4992753193117595 0.874059986305284
0.0 0.8731858459950379 0.4969442903745012
0.0 0.1265427876294626 0.4981772993071651
0.0 0.1281705103897096 0.2304843984163029
0.0 0.7829236577721206 0.1204381401513021
0.0 0.1287341333529856 0.7710799917249003
0.0 0.780189266486453 0.8744090508054931
0.0 0.6431616486152947 0.1237686279359682
0.0 0.5731142163658095 0.2481857304320556
0.0 0.4279970220327022 0.243151902293915
0.0 0.4980099833795718 0.3693088744528926
0.0 0.6428571428571402 0.3711537444790443
0.0 0.5710969019918309 0.4945641809677001
0.0 0.4260092578750536 0.4932570689818364
0.0 0.499517693311145 0.6199132412650856
0.0 0.642721480169541 0.6187589389310159
0.0 0.3566354442453172 0.6201850988435915
0.0 0.2780610383128231 0.4946012423131532
0.0 0.2120499865400995 0.6282013773340063
0.0 0.2815271907548887 0.7546205518166489
0.0 0.2085868595772523 0.3627989203224996
0.0 0.5712687321351527 0.744662762272694
0.0 0.7133156274175703 0.7441909714685613
0.0 0.7857142857142819 0.6185895741317413
0.0 0.8680183854583636 0.7626093659096141
0.0 0.354155614447705 0.3659811970363764
0.0 0.2832538254546357 0.2398398119712895
0.0 0.6422296236328533 0.8697185824689689
0.0 0.4285714285714254 0.7521715604194108
0.0 0.3541548407014436 0.8756983776765987
0.0 0.7142857142857117 0.4948716593053926
0.0 0.7882963076132579 0.3690741317646173
0.0 0.715857469372935 0.2457434531964719
0.0 0.870587567337407 0.2322212425174615
0.0 0.3572911067997566 0.1204418393796681
0.0 0.2171580770030699 0.1165487808372885
0.0 0.2161680281950284 0.8828963909047871
0.0 0.09346538150450955 0.6366345908160711
0.0 0.9053837034335367 0.6327715032260279
0.0 0.9078997382491263 0.3609730133182866
0.0 0.08838577660090738 0.3571428571428566
0.0 0.8954213132044453 0.1045786867955545
0.0 0.8954213132044457 0.8954213132044457
0.0 0.1045786867955538 0.1045786867955538
0.0 0.1040205757894244 0.8959794242105754
1.0 0.1265427876294626 0.498177299307165
1.0 0.8731858459950379 0.4969442903745012
1.0 0.4992753193117595 0.8740599863052839
1.0 0.4999999999999988 0.123717914826348
1.0 0.214285714285714 0.123717914826348
1.0 0.7829236577721206 0.1204381401513021
1.0 0.1287341333529856 0.7710799917249003
1.0 0.780189266486453 0.8744090508054931
1.0 0.6431160078222908 0.123794978660095
1.0 0.5729312758965722 0.2482913511612154
1.0 0.4285714285714273 0.2474358296526955
1.0 0.4980752277244863 0.3700404658008826
1.0 0.6428571428571402 0.3711537444790443
1.0 0.5711077760493167 0.4946861128590316
1.0 0.4260219442754536 0.4933993228550567
1.0 0.499521620054126 0.6199572722258442
1.0 0.6427239469696189 0.6187865994063643
1.0 0.3566382131025473 0.620216146315921
1.0 0.2780636141890948 0.4946301258707448
1.0 0.2120508773290165 0.6282113658389932
1.0 0.2036237758402277 0.3683082708374506
1.0 0.2815278006959132 0.7546273911462018
1.0 0.5712694932712312 0.7446712969674685
1.0 0.7133161654069298 0.7441970039969151
1.0 0.7857142857142819 0.6185895741317413
1.0 0.8680184623139862 0.762610227699379
1.0 0.3469795872514021 0.3673519163541453
1.0 0.6422297341027035 0.8697198211784186
1.0 0.4285714285714252 0.7521715604194107
1.0 0.3541549133134703 0.8756991918824979
1.0 0.7142857142857117 0.4948716593053926
1.0 0.7882963076132579 0.3690741317646173
1.0 0.7158193724958949 0.2457654484386863
1.0 0.3535499438421963 0.1244455545700566
1.0 0.8705821249264012 0.2322243846949207
1.0 0.2790476745217074 0.2437677986377892
1.0 0.127275597339277 0.231347305586039
1.0 0.2161681419538702 0.8828976664940291
1.0 0.09346555966229293 0.6366365885170684
1.0 0.9053837188046613 0.632771675583981
1.0 0.9078989607618396 0.3609734622007808
1.0 0.08838577660090734 0.3571428571428565
1.0 0.8954213132044453 0.1045786867955545
1.0 0.8954213132044457 0.8954213132044457
1.0 0.1045786867955538 0.1045786867955538
1.0 0.1040205757894242 0.8959794242105755
0.4981772993071659 0.0 0.1265427876294645
0.4998527712770374 0.0 0.8629316506252817
0.874026601107333 0.0 0.4992753193117615
0.1237179148263479 0.0 0.4999999999999989
0.123717914826348 0.0 0.214285714285714
0.1209674350079761 0.0 0.7851089472455881
0.7710799917248997 0.0 0.1287341333529879
0.770461117441567 0.0 0.870465613939674
0.1244455545700567 0.0 0.3535499438421972
0.2472282007945731 0.0 0.4253229820386315
0.2474012248430084 0.0 0.5708871636731041
0.3698575066048278 0.0 0.4971931345984439
0.3733243408689084 0.0 0.6381553329100988
0.495017385724666 0.0 0.5701771255371382
0.4934240417999876 0.0 0.4257198203357524
0.6200166041942712 0.0 0.4993161576454824
0.6202301548014815 0.0 0.356553615377826
0.6188517002120397 0.0 0.6425345948161512
0.4946365804424945 0.0 0.2779991605783596
0.6282147763485453 0.0 0.2120260354397756
0.3683090392388504 0.0 0.203616102791333
0.7546302943120523 0.0 0.281509560760257
0.7439702801933803 0.0 0.5712813715064848
0.7496354893517562 0.0 0.7151695172896004
0.629421646740822 0.0 0.7847958101617822
0.36732141923373 0.0 0.3465965268553011
0.870395710612091 0.0 0.6422161336380221
0.7521715604194078 0.0 0.4285714285714304
0.8756955630691514 0.0 0.3541527418925633
0.3447289397785652 0.0 0.8697326240102099
0.5003293350542685 0.0 0.7099077022065834
0.1232537340550046 0.0 0.6426660184864477
0.2594964282870583 0.0 0.735389780782245
0.2437282390416 0.0 0.2784411445254093
0.2313473055860421 0.0 0.1272755973392793
0.8806796780289959 0.0 0.7812255925320932
0.2130287735154429 0.0 0.880766273470168
0.882897545552779 0.0 0.2161647400611109
0.6366372706189788 0.0 0.0934605912844456
0.6428571428571417 0.0 0.9033877700142726
0.3955463630531675 0.0 0.7632234181068838
0.3571428571428565 0.0 0.08838577660090897
0.1045786867955543 0.0 0.8954213132044454
0.8954213132044457 0.0 0.8954213132044457
0.1045786867955538 0.0 0.1045786867955538
0.8959794242105708 0.0 0.1040205757894292
0.498177299307165 1.0 0.1265427876294626
0.4978021397023111 1.0 0.8704865593677958
0.8740266011073335 1.0 0.4992753193117592
0.123717914826348 1.0 0.4999999999999988
0.123717914826348 1.0 0.214285714285714
0.1205280434878828 1.0 0.7801892664864544
0.7710799917249003 1.0 0.1287341333529856
0.7704611174415671 1.0 0.8704656139396724
0.1231862696032706 1.0 0.6419363063191699
0.2473472221155165 1.0 0.5712750986722411
0.2474358296526955 1.0 0.4285714285714273
0.3698831109599328 1.0 0.4977991981870978
0.3709272043029961 1.0 0.6424647637622689
0.4946221303561987 1.0 0.5709963746106065
0.4933624332977596 1.0 0.4259573724461038
0.6199404602158225 1.0 0.499492291176116
0.6187731336542217 1.0 0.642700491916832
0.6202071960547013 1.0 0.356622562984654
0.494622485900992 1.0 0.2780502438645542
0.6282086008004978 1.0 0.2120460405886109
0.368307361317242 1.0 0.2036221841349253
0.7546254385962492 1.0 0.28152438621953
0.7439571245355356 1.0 0.5713104557438373
0.7496202023158125 1.0 0.7152020141792697
0.6290642325460744 1.0 0.7860880272839252
0.3673346719758963 1.0 0.3469493522686996
0.8703932920156809 1.0 0.6422213701284114
0.7521715604194107 1.0 0.4285714285714252
0.8756949850077476 1.0 0.3541545068281866
0.2467630522735681 1.0 0.7131204296828788
0.3691571237299705 1.0 0.7836340306812559
0.2323915988573232 1.0 0.8680955571287227
0.1244455545700566 1.0 0.3535499438421963
0.496724327381962 1.0 0.7160617079371141
0.2437647729880462 1.0 0.2790423700737066
0.231347305586039 1.0 0.127275597339277
0.8806775702156193 1.0 0.7812300846011462
0.8828966399232453 1.0 0.2161675051269257
0.6366083550808471 1.0 0.9054080401182786
0.6366360355093693 1.0 0.09346459231421181
0.358596537425086 1.0 0.9043401388936955
0.3571428571428565 1.0 0.08838577660090734
0.1045786867955545 1.0 0.8954213132044453
0.8954213132044457 1.0 0.8954213132044457
0.1045786867955538 1.0 0.1045786867955538
0.8959794242105755 1.0 0.1040205757894242
0.1265427876294626 0.498177299307165 0.0
0.8704865593677958 0.4978021397023111 0.0
0.4992753193117592 0.8740266011073337 0.0
0.4999999999999988 0.123717914826348 0.0
0.214285714285714 0.123717914826348 0.0
[...]
POINT_DATA 445
SCALARS solution float 1
LOOKUP_TABLE default
1.0
0.0
1.0
0.0
1.0
0.0
1.0
0.0
0.42045330536007397
0.44177872923459965
0.4728075483201931
0.5061864678875706
0.5220761093914689
0.9163540957441618
1.0
1.0
1.0
1.0
1.0
1.0
0.4193794128212454
0.4564859032482851
0.4730549167294057
0.4647903388859214
0.4974637899429308
0.578749862473417
0.0
0.0
0.0
0.0
0.0
0.0
0.3964603652067844
0.38944249452001445
0.48300103868736344
0.6021244106100049
0.6759435352257634
0.9625628371597165
1.0
1.0
1.0
1.0
1.0
1.0
0.41544567486023587
0.5478313480003825
0.5654140668052604
0.5782424319689681
0.5530750434378242
0.7920624351406617
0.0
0.0
0.0
0.0
0.0
0.0
0.0
0.0
0.0
0.0
0.0
0.0
1.0
1.0
1.0
1.0
1.0
1.0
0.0
0.0
0.0
0.0
0.0
0.0
1.0
1.0
1.0
1.0
1.0
1.0
0.5440160317575853
0.5503813847647601
0.49480216135100263
0.38786449643852977
0.19510443639101124
0.5797454412024617
0.8243818357756005
0.833323029556897
0.2278323998870316
0.2962882298748583
0.3816784757015027
0.39865541494728646
0.43705200265613453
0.4851632173251022
0.5280079416130106
0.5045104626163557
0.6528804773139104
0.5518928156700545
0.6257751554850949
0.6955519919237017
0.4938640608598911
0.5434522114397354
0.5488533926933005
0.5626359460230744
0.4803578104732403
0.48565144548776634
0.3207151251097612
0.5814534517792378
0.7837665873990308
0.7464121911603521
0.5713540801162726
0.4548594771915032
0.4290481757554037
0.37684659041052215
0.3996328242647986
0.14031983031407907
0.5058277915809917
0.5731991895835966
0.529798893326196
0.5119453900453147
0.47036986525898095
0.278480657253298
0.20699025505050186
0.6249020890646273
0.480290639878559
0.6682774130799412
0.5710312967447259
0.8268482059708709
0.35297299492766004
0.16114775025947514
0.13002990793671804
0.4309968601193133
0.8413278548989285
0.3568078830013728
0.4105675744506851
0.3497850667738132
0.4154879118135087
0.48815482638964697
0.49640197725946095
0.4949582789417384
0.561997318390264
0.5755051719145273
0.6227773463476574
0.5212570162358474
0.5631811548425143
0.4865862766829384
0.5861687383056421
0.6896573424478865
0.7105952165946438
0.586373197328431
0.5843057770299737
0.49852217458240095
0.6874069251900544
0.7969948789126972
0.8051954370657698
0.6546807282499869
0.5641383740214209
0.5017244867244165
0.27135403729664953
0.22585654018434503
0.24698426153386904
0.3277335009830212
0.5091505296275973
0.6008870478433758
0.5833781230764168
0.6672937142183881
0.18437861587478532
0.2902339368422941
0.27959775601264464
0.8211112802772444
0.4325825177736781
0.4358197702144578
0.5104279881929972
0.6137079965516448
0.4734799193507366
0.36272640265480605
0.4481548925515374
0.5055605632326181
0.5355620924972458
0.4162982034799453
0.45663344285888485
0.5106448516965953
0.5260072973561274
0.5236305356160731
0.5448810353692293
0.5105165453711646
0.5018994049025178
0.48727625800431196
0.5240506658417253
0.46255007697545053
0.3567001217980014
0.2782748890312443
0.35776370753420755
0.5465560003310195
0.680068824434834
0.7096457956051586
0.532754824208364
0.6199523627620841
0.46669216079026304
0.46029061516332026
0.5918785588767519
0.6753498878606243
0.5433993765134876
0.5065958989526235
0.4050112780544189
0.1694193118997154
0.6140730767553808
0.6698856930745358
0.537235802628306
0.1704468432768061
0.5312758296140199
0.8046181639769694
0.43452633852247796
0.31150752066211973
0.9598997268757008
0.5217143879931675
0.11456260446490982
-0.01988428026933323
0.5693488750654133
0.5827991486568129
0.5154298586868747
0.5201295563187521
0.3353156254865092
0.31626318425636046
0.6258799253908717
0.5514702847306935
0.5598323400991513
0.5286054360873921
0.5487120424516604
0.5753332035241598
0.5452138282285968
0.5090318369346843
0.5673185271866166
0.6359025956904907
0.5185491516141755
0.27905011437284255
0.2323961111593151
0.16216977350250156
0.2767454529640205
0.568437121095132
0.7251455708226343
0.77796693985958
0.5400685314023462
0.6053919800883241
0.5834238035813807
0.5237630805806035
0.6104786338446052
0.715071604876916
0.7951015016265088
0.5841028163639891
0.5458108564796216
0.530296145207148
0.1871260214221673
0.5700565096781607
0.7641913129947128
0.6053863227782735
0.3632497685161948
0.5168232171080829
0.5125084424475651
0.20827636747123796
0.9283087287633982
0.7083167642698971
0.04860450135689859
0.27966164821963146
0.0
0.0
0.0
0.0
0.0
0.0
0.0
0.0
0.0
0.0
0.0
0.0
0.0
0.0
0.0
0.0
0.0
0.0
0.0
0.0
0.0
0.0
0.0
0.0
0.0
0.0
0.0
0.0
0.0
0.0
0.0
0.0
0.0
0.0
0.0
0.0
0.0
0.0
0.0
0.0
0.0
0.0
0.0
0.0
0.0
0.0
1.0
1.0
1.0
1.0
1.0
1.0
1.0
1.0
1.0
1.0
1.0
1.0
1.0
1.0
1.0
1.0
1.0
1.0
1.0
1.0
1.0
1.0
1.0
1.0
1.0
1.0
1.0
1.0
1.0
1.0
1.0
1.0
1.0
1.0
1.0
1.0
1.0
1.0
1.0
1.0
1.0
1.0
1.0
1.0
1.0
1.0
0.2861872180060557
0.23247463150996142
0.1961923800422844
0.22026965403191776
0.36087229976721746
0.30304933104211024
0.6031532100406874
0.6617594428895228
0.5538810354569215
0.5662986613391708
0.5025164664603634
0.6020574393604756
0.552578494623438
0.34820867752237894
0.3954806777729442
0.5422629461799088
0.5555267717704828
0.4131989679505753
0.5262583586771822
0.5207082628351485
0.2671960283398742
0.30923915563521426
0.4422162365734376
0.6434738549281602
0.8093511431249096
0.9010665075860382
0.46932388221363264
0.33651696124552566
0.5661594849531578
0.45692215568827005
0.42572357279376294
0.45826672057649753
0.561372067616777
0.6382836409670578
0.6273016631812369
0.6300780278971195
0.4998600525784597
0.3761180969094763
0.4125820974847484
0.5789490189096024
0.7618982053852601
0.7888472223836773
0.5519469333430101
0.5486165489131793
0.5588788739241431
0.6276158888635464
0.7839632068500643
0.6065516110538093
0.4042724011449293
0.5798083406257698
0.5420976641273935
0.6958353298307713
0.3609055849805308
0.5984049557348906
0.746165428315383
0.8600147221050696
0.6905168110726729
0.7014375089861336
0.6975159961702262
0.8067416427167041
0.5649081104239436
0.5500294770665219
0.5873435718547003
0.5034346035077838
0.5998610089138993
0.6170858725975512
0.4242098367219073
0.13389106048687674
0.2955951574832946
0.5822748050287707
0.8753442652048393
0.6564449881064903
0.7526585563074024
0.756158764562244
0.6210680422381083
0.5977683090433601
0.4864899839281013
0.19537721554071283
0.3863327219632513
0.3175134549198535
0.6180581247977441
0.6024611122395651
0.5799693590839144
0.4264999797949641
0.17897839958549913
0.6099693262740328
0.592052728815601
0.32076909295659617
0.6591045617405142
