# vtk DataFile Version 3.0
FEM Solution
ASCII
DATASET UNSTRUCTURED_GRID
POINTS 140 float
0.0 0.0 1.0
0.0 0.0 0.0
0.0 1.0 1.0
0.0 1.0 0.0
1.0 0.0 1.0
1.0 0.0 0.0
1.0 1.0 1.0
1.0 1.0 0.0
0.0 0.0 0.2499999999999997
0.0 0.0 0.4999999999999988
0.0 0.0 0.7499999999999989
0.0 0.2499999999999997 1.0
0.0 0.4999999999999988 1.0
0.0 0.7499999999999989 1.0
0.0 1.0 0.2499999999999997
0.0 1.0 0.4999999999999988
0.0 1.0 0.7499999999999989
0.0 0.2499999999999997 0.0
0.0 0.4999999999999988 0.0
0.0 0.7499999999999989 0.0
1.0 0.0 0.2499999999999997
1.0 0.0 0.4999999999999988
1.0 0.0 0.7499999999999989
1.0 0.2499999999999997 1.0
1.0 0.4999999999999988 1.0
1.0 0.7499999999999989 1.0
1.0 1.0 0.2499999999999997
1.0 1.0 0.4999999999999988
1.0 1.0 0.7499999999999989
1.0 0.2499999999999997 0.0
1.0 0.4999999999999988 0.0
1.0 0.7499999999999989 0.0
0.2499999999999997 0.0 0.0
0.4999999999999988 0.0 0.0
0.7499999999999989 0.0 0.0
0.2499999999999997 0.0 1.0
0.4999999999999988 0.0 1.0
0.7499999999999989 0.0 1.0
0.2499999999999997 1.0 0.0
0.4999999999999988 1.0 0.0
0.7499999999999989 1.0 0.0
0.2499999999999997 1.0 1.0
0.4999999999999988 1.0 1.0
0.7499999999999989 1.0 1.0
0.0 0.7834936490538906 0.6249999999999989
0.0 0.2046118127312859 0.6359641041884292
0.0 0.6239406576797799 0.2116930112639576
0.0 0.3759949993707399 0.2114006558410865
0.0 0.4999999999999995 0.4330127018922183
0.0 0.7874036008069083 0.3671197358413988
0.0 0.5203442540690995 0.7082726776397392
0.0 0.2365667220822624 0.3989630255083483
0.0 0.6896861734925073 0.8231510809247649
0.0 0.3749999999999993 0.8447098097131593
0.0 0.8169872981077801 0.1830127018922196
0.0 0.1830127018922192 0.1830127018922192
0.0 0.1780977805306458 0.8250407933257091
0.0 0.3832210891220216 0.5884011055039227
0.0 0.8540734935786142 0.8515195403519169
1.0 0.6249999999999989 0.7834936490538906
1.0 0.6359641041884292 0.2046118127312859
1.0 0.2116930112639576 0.6239406576797799
1.0 0.2114006558410861 0.3759949993707395
1.0 0.433012701892218 0.4999999999999987
1.0 0.3671197358413987 0.7874036008069082
1.0 0.708272677639739 0.520344254069099
1.0 0.3989630255083481 0.2365667220822622
1.0 0.8231510809247647 0.6896861734925068
1.0 0.8447098097131593 0.3749999999999992
1.0 0.1830127018922196 0.8169872981077801
1.0 0.1830127018922189 0.1830127018922189
1.0 0.8250407933257091 0.1780977805306459
1.0 0.5884011055039224 0.3832210891220214
1.0 0.8515195403519167 0.8540734935786141
0.7834936490538906 0.0 0.6249999999999989
0.2046118127312859 0.0 0.6359641041884292
0.6239406576797799 0.0 0.2116930112639576
0.3759949993707395 0.0 0.2114006558410861
0.4999999999999987 0.0 0.433012701892218
0.7874036008069082 0.0 0.3671197358413987
0.520344254069099 0.0 0.708272677639739
0.2365667220822622 0.0 0.3989630255083481
0.6896861734925068 0.0 0.8231510809247647
0.3749999999999992 0.0 0.8447098097131593
0.8169872981077801 0.0 0.1830127018922196
0.1830127018922189 0.0 0.1830127018922189
0.1780977805306459 0.0 0.8250407933257091
0.3832210891220214 0.0 0.5884011055039224
0.8540734935786141 0.0 0.8515195403519167
0.7834936490538906 1.0 0.6249999999999989
0.2046118127312859 1.0 0.6359641041884292
0.6239406576797799 1.0 0.2116930112639576
0.3759949993707395 1.0 0.2114006558410861
0.4999999999999987 1.0 0.433012701892218
0.7874036008069082 1.0 0.3671197358413987
0.520344254069099 1.0 0.708272677639739
0.2365667220822622 1.0 0.3989630255083481
0.6896861734925068 1.0 0.8231510809247647
0.3749999999999992 1.0 0.8447098097131593
0.8169872981077801 1.0 0.1830127018922196
0.1830127018922189 1.0 0.1830127018922189
0.1780977805306459 1.0 0.8250407933257091
0.3832210891220214 1.0 0.5884011055039224
0.8540734935786141 1.0 0.8515195403519167
0.6249999999999989 0.7834936490538906 0.0
0.6359641041884292 0.2046118127312859 0.0
0.2116930112639576 0.6239406576797799 0.0
0.2114006558410861 0.3759949993707395 0.0
0.433012701892218 0.4999999999999987 0.0
0.3671197358413987 0.7874036008069082 0.0
0.708272677639739 0.520344254069099 0.0
0.3989630255083481 0.2365667220822622 0.0
0.8231510809247647 0.6896861734925068 0.0
0.8447098097131593 0.3749999999999992 0.0
0.1830127018922196 0.8169872981077801 0.0
0.1830127018922189 0.1830127018922189 0.0
0.8250407933257091 0.1780977805306459 0.0
0.5884011055039224 0.3832210891220214 0.0
0.8515195403519167 0.8540734935786141 0.0
0.6249999999999989 0.7834936490538906 1.0
0.6359641041884292 0.2046118127312859 1.0
0.2116930112639576 0.6239406576797799 1.0
0.2114006558410861 0.3759949993707395 1.0
0.433012701892218 0.4999999999999987 1.0
0.3671197358413987 0.7874036008069082 1.0
0.708272677639739 0.520344254069099 1.0
0.3989630255083481 0.2365667220822622 1.0
0.8231510809247647 0.6896861734925068 1.0
0.8447098097131593 0.3749999999999992 1.0
0.1830127018922196 0.8169872981077801 1.0
0.1830127018922189 0.1830127018922189 1.0
0.8250407933257091 0.1780977805306459 1.0
0.5884011055039224 0.3832210891220214 1.0
0.8515195403519167 0.8540734935786141 1.0
0.6865932260822657 0.6758445465723439 0.3064905125447205
0.646949433875084 0.6763949802286895 0.6670469709502463
0.3100767724547189 0.5183786997980978 0.3958324152058512
0.4828076092463626 0.365145756250141 0.593143587814973
0.3090451269191328 0.7175693844628941 0.6585087434046686
0.663002329745876 0.3075439416075523 0.2879764494570969
CELLS 367 1835
4 133 103 107 108
4 133 103 91 90
4 133 90 91 92
4 134 118 124 126
4 135 105 46 45
4 48 14 95 13
4 134 62 133 71
4 44 8 50 80
4 129 55 85 139
4 135 91 133 108
4 136 86 82 74
4 137 128 123 97
4 135 107 110 106
4 135 99 91 108
4 133 111 59 109
4 135 56 49 47
4 135 56 136 49
4 136 119 79 81
4 134 102 132 72
4 135 54 46 106
4 137 49 121 120
4 134 102 66 88
4 91 99 37 108
4 135 136 80 77
4 3 87 68 21
4 133 107 103 109
4 137 49 136 121
4 48 13 99 53
4 135 76 80 84
4 7 54 50 80
4 113 45 105 135
4 83 104 33 75
4 136 60 62 63
4 115 33 83 104
4 135 106 46 105
4 136 44 129 121
4 135 106 114 54
4 127 68 130 119
4 133 91 103 108
4 2 99 13 53
4 137 89 101 95
4 136 49 56 52
4 133 64 67 93
4 20 60 61 73
4 133 71 138 65
4 135 113 99 108
4 70 117 98 6
4 32 33 104 75
4 113 45 135 53
4 7 80 50 8
4 138 104 115 83
4 134 132 96 118
4 136 73 79 77
4 137 57 51 128
4 138 83 115 69
4 136 125 79 119
4 133 67 64 71
4 135 80 54 84
4 135 107 138 110
4 133 111 109 103
4 91 108 37 38
4 3 68 87 130
4 135 77 138 136
4 106 114 54 16
4 54 114 0 16
4 136 63 124 127
4 18 105 45 17
4 135 133 107 108
4 133 116 138 107
4 135 76 114 110
4 48 99 13 95
4 134 62 64 58
4 70 98 25 6
4 133 116 107 109
4 54 84 0 114
4 93 134 64 88
4 137 89 100 97
4 134 101 94 92
4 136 119 63 127
4 129 10 55 139
4 135 137 48 47
4 136 77 86 80
4 134 94 88 92
4 137 123 120 122
4 135 134 137 136
4 91 38 90 103
4 135 137 92 95
4 137 43 100 89
4 136 63 119 81
4 136 131 119 127
4 137 123 94 97
4 66 88 102 27
4 133 67 98 93
4 135 50 136 56
4 137 43 89 95
4 66 27 102 72
4 135 50 46 54
4 134 94 96 88
4 135 138 77 76
4 90 38 39 103
4 135 50 54 80
4 135 99 48 95
4 135 91 99 95
4 65 112 28 69
4 135 53 48 99
4 133 103 98 117
4 134 96 132 102
4 96 118 132 42
4 5 132 102 72
4 41 94 96 118
4 136 125 129 85
4 63 68 81 73
4 80 44 136 50
4 28 115 4 69
4 85 44 9 55
4 135 136 50 80
4 87 73 68 21
4 24 126 132 72
4 133 59 70 67
4 136 79 125 82
4 133 138 71 62
4 135 114 76 84
4 134 124 58 126
4 134 58 66 72
4 135 50 56 47
4 135 133 137 134
4 135 133 134 136
4 135 48 137 95
4 20 60 73 21
4 138 76 110 75
4 134 123 122 118
4 76 31 84 114
4 110 32 104 75
4 138 77 76 75
4 2 18 113 53
4 85 55 9 139
4 138 112 65 69
4 134 96 102 88
4 5 24 132 72
4 37 108 99 113
4 138 115 112 69
4 138 69 78 83
4 85 136 44 129
4 138 136 73 60
4 124 136 122 134
4 127 68 119 63
4 128 1 40 100
4 137 123 128 120
4 134 138 133 62
4 137 49 51 43
4 52 121 11 10
4 136 129 125 121
4 138 73 61 60
4 134 124 63 58
4 138 62 136 60
4 138 61 62 60
4 135 114 106 110
4 135 80 76 77
4 18 45 113 53
4 46 17 106 16
4 134 124 136 63
4 128 57 1 100
4 136 79 73 81
4 100 89 43 15
4 14 95 89 43
4 133 103 117 111
4 73 136 63 60
4 135 45 48 53
4 133 59 65 109
4 135 48 45 47
4 137 134 123 122
4 135 53 99 113
4 98 103 90 39
4 80 44 74 136
4 134 136 133 138
4 67 93 88 26
4 134 66 102 72
4 137 43 57 100
4 138 71 62 65
4 136 124 131 127
4 135 136 137 49
4 137 95 48 43
4 135 107 106 105
4 128 100 40 97
4 96 132 102 42
4 135 138 76 110
4 76 110 31 114
4 31 114 0 84
4 133 70 111 117
4 46 106 54 16
4 46 17 45 105
4 133 111 70 59
4 137 128 51 120
4 19 4 83 69
4 63 22 23 127
4 63 23 58 127
4 134 124 118 122
4 93 134 133 64
4 137 101 89 97
4 135 54 114 84
4 137 43 48 47
4 137 121 136 122
4 136 52 56 44
4 68 22 63 127
4 68 130 22 127
4 135 49 137 47
4 3 87 36 130
4 87 68 73 81
4 7 84 54 80
4 7 0 54 84
4 98 117 103 39
4 137 94 134 101
4 25 93 98 67
4 70 67 25 98
4 98 117 39 6
4 135 46 50 47
4 119 63 68 81
4 78 19 83 69
4 85 125 129 34
4 24 23 126 58
4 24 58 126 72
4 5 42 102 132
4 134 93 133 92
4 5 102 27 72
4 136 121 125 122
4 134 133 64 71
4 119 81 68 130
4 124 136 131 122
4 124 58 126 23
4 124 58 23 127
4 124 63 58 127
4 46 106 17 105
4 135 105 113 108
4 135 92 137 133
4 18 113 45 105
4 134 94 123 118
4 2 113 99 53
4 133 98 103 90
4 2 113 37 99
4 129 44 85 55
4 134 66 64 88
4 41 97 94 118
4 137 101 92 95
4 137 123 134 94
4 57 100 15 1
4 57 100 43 15
4 76 31 110 32
4 136 74 82 85
4 76 32 110 75
4 133 98 70 117
4 136 86 79 82
4 63 68 73 60
4 134 63 62 58
4 134 126 58 72
4 29 112 59 109
4 28 112 115 69
4 134 88 93 92
4 134 64 62 71
4 66 88 27 26
4 137 121 122 120
4 73 136 81 63
4 73 60 68 21
4 133 65 138 109
4 135 45 46 47
4 137 101 134 92
4 128 1 57 12
4 3 22 68 130
4 87 68 81 130
4 87 36 130 81
4 133 138 116 109
4 115 69 83 4
4 115 4 83 33
4 29 59 111 109
4 119 36 35 81
4 119 130 36 81
4 136 86 74 80
4 137 43 51 57
4 138 107 116 110
4 123 128 40 97
4 138 73 136 77
4 79 119 82 35
4 79 81 119 35
4 135 107 105 108
4 134 126 132 118
4 135 92 91 95
4 135 92 133 91
4 138 78 73 77
4 136 82 125 85
4 51 12 128 57
4 51 128 12 120
4 138 65 61 69
4 51 120 11 49
4 51 11 120 12
4 134 63 136 62
4 94 123 118 97
4 134 132 126 72
4 138 61 78 69
4 29 111 59 30
4 129 85 34 139
4 52 49 11 120
4 52 120 11 121
4 52 49 120 121
4 136 49 52 121
4 44 8 80 74
4 85 44 74 9
4 44 74 9 8
4 52 129 44 121
4 138 112 115 104
4 138 83 78 75
4 61 19 78 69
4 138 104 83 75
4 138 104 110 116
4 65 112 29 28
4 137 100 128 97
4 125 34 82 35
4 138 110 104 75
4 25 93 67 26
4 52 129 55 44
4 134 58 64 66
4 129 52 55 10
4 129 121 52 10
4 85 125 34 82
4 14 43 89 15
4 91 38 103 108
4 138 78 61 73
4 135 138 133 136
4 133 93 98 90
4 136 44 56 50
4 65 59 112 109
4 138 65 62 61
4 65 59 29 112
4 137 120 51 49
4 125 119 35 82
4 133 71 65 59
4 125 79 119 82
4 41 123 40 97
4 41 118 123 97
4 41 118 96 42
4 64 88 66 26
4 64 67 88 26
4 137 47 49 43
4 134 136 138 62
4 64 88 67 93
4 135 107 133 138
4 133 67 70 98
4 137 94 101 97
4 136 122 125 131
4 136 52 44 121
4 136 131 125 119
4 134 96 94 118
4 133 67 71 59
4 20 73 61 78
4 20 78 61 19
4 70 30 117 6
4 70 111 117 30
4 70 59 111 30
4 85 136 74 44
4 137 134 133 92
4 48 95 14 43
4 137 136 134 122
4 138 65 112 109
4 136 77 79 86
4 138 112 116 109
4 137 57 128 100
4 138 78 77 75
4 138 112 104 116
4 133 92 93 90
CELL_TYPES 367
10
10
10
10
10
10
10
10
10
10
10
10
10
10
10
10
10
10
10
10
10
10
10
10
10
10
10
10
10
10
10
10
10
10
10
10
10
10
10
10
10
10
10
10
10
10
10
10
10
10
10
10
10
10
10
10
10
10
10
10
10
10
10
10
10
10
10
10
10
10
10
10
10
10
10
10
10
10
10
10
10
10
10
10
10
10
10
10
10
10
10
10
10
10
10
10
10
10
10
10
10
10
10
10
10
10
10
10
10
10
10
10
10
10
10
10
10
10
10
10
10
10
10
10
10
10
10
10
10
10
10
10
10
10
10
10
10
10
10
10
10
10
10
10
10
10
10
10
10
10
10
10
10
10
10
10
10
10
10
10
10
10
10
10
10
10
10
10
10
10
10
10
10
10
10
10
10
10
10
10
10
10
10
10
10
10
10
10
10
10
10
10
10
10
10
10
10
10
10
10
10
10
10
10
10
10
10
10
10
10
10
10
10
10
10
10
10
10
10
10
10
10
10
10
10
10
10
10
10
10
10
10
10
10
10
10
10
10
10
10
10
10
10
10
10
10
10
10
10
10
10
10
10
10
10
10
10
10
10
10
10
10
10
10
10
10
10
10
10
10
10
10
10
10
10
10
10
10
10
10
10
10
10
10
10
10
10
10
10
10
10
10
10
10
10
10
10
10
10
10
10
10
10
10
10
10
10
10
10
10
10
10
10
10
10
10
10
10
10
10
10
10
10
10
10
10
10
10
10
10
10
10
10
10
10
10
10
10
10
10
10
10
10
10
10
10
10
10
10
10
10
10
10
10
10
10
10
10
10
10
10
10
10
10
10
10
10
POINT_DATA 140
SCALARS solution float 1
LOOKUP_TABLE default
1.0
0.0
1.0
0.0
1.0
0.0
1.0
0.0
0.5149939785834622
0.4518157639553224
0.6953922037349202
1.0
1.0
1.0
0.2956895682469751
0.505612719248459
0.6882792971260783
0.0
0.0
0.0
0.6852529047105351
0.8738331965699649
0.9130155407116466
1.0
1.0
1.0
0.4709750974131319
0.5929397545156851
0.7426297213715429
0.0
0.0
0.0
0.0
0.0
0.0
1.0
1.0
1.0
0.0
0.0
0.0
1.0
1.0
1.0
0.652729137388351
0.5701743249779392
0.2566333080349265
0.4357224297681432
0.5319178872146562
0.5447093536221458
0.5894726952137896
0.5024115482319073
0.8080964554476098
0.7913421763759338
0.2564355218734896
0.3356760327651169
0.525291679612638
0.5883693032757112
0.8850444904670801
0.7290026902940888
0.6170394184841679
0.6973804381636381
0.5701856724250591
0.6489652633119638
0.6958473080128931
0.5420375434561086
0.32027148375217324
0.7508861510348535
0.5365357598134712
0.863457162056553
0.11752946388052482
0.3293869012485403
0.4060356784605288
0.7285602167894132
0.5902174068504349
0.646685874432661
0.3985049865047264
0.4627685308272361
0.5964836732033949
0.5513162206666478
0.5956048335856394
0.6082504307289242
0.7306244510620977
0.7233989317062979
0.4112734066854072
0.27964916274914536
0.6106951262341258
0.7284898693804367
0.603226456309814
0.7195349192860807
0.6722538445662531
0.27857652897089136
0.3061613688212522
0.5057824094513814
0.31541679982078163
0.7120476284711825
0.472988553671139
0.7020987677745736
0.8264630935109968
0.25716014847234137
0.2529809771369843
0.70246295734403
0.6168620856383777
0.8710867846260368
0.0
0.0
0.0
0.0
0.0
0.0
0.0
0.0
0.0
0.0
0.0
0.0
0.0
0.0
0.0
1.0
1.0
1.0
1.0
1.0
1.0
1.0
1.0
1.0
1.0
1.0
1.0
1.0
1.0
1.0
0.37183903093528425
0.6568215262534147
0.5596673645123713
0.6908814314063573
0.6063128612116063
0.3030344306628701
