# vtk DataFile Version 3.0
FEM Solution
ASCII
DATASET UNSTRUCTURED_GRID
POINTS 6754 float
0.0 0.0 1.0
0.0 0.0 0.0
0.0 1.0 1.0
0.0 1.0 0.0
1.0 0.0 1.0
1.0 0.0 0.0
1.0 1.0 1.0
1.0 1.0 0.0
0.0 0.0 0.05
0.0 0.0 0.1
0.0 0.0 0.15
0.0 0.0 0.2
0.0 0.0 0.25
0.0 0.0 0.3
0.0 0.0 0.35
0.0 0.0 0.4
0.0 0.0 0.45
0.0 0.0 0.5
0.0 0.0 0.55
0.0 0.0 0.6
0.0 0.0 0.65
0.0 0.0 0.7
0.0 0.0 0.75
0.0 0.0 0.8
0.0 0.0 0.85
0.0 0.0 0.9
0.0 0.0 0.95
0.0 0.05 1.0
0.0 0.1 1.0
0.0 0.15 1.0
0.0 0.2 1.0
0.0 0.25 1.0
0.0 0.3 1.0
0.0 0.35 1.0
0.0 0.4 1.0
0.0 0.45 1.0
0.0 0.5 1.0
0.0 0.55 1.0
0.0 0.6 1.0
0.0 0.65 1.0
0.0 0.7 1.0
0.0 0.75 1.0
0.0 0.8 1.0
0.0 0.85 1.0
0.0 0.9 1.0
0.0 0.95 1.0
0.0 1.0 0.05
0.0 1.0 0.1
0.0 1.0 0.15
0.0 1.0 0.2
0.0 1.0 0.25
0.0 1.0 0.3
0.0 1.0 0.35
0.0 1.0 0.4
0.0 1.0 0.45
0.0 1.0 0.5
0.0 1.0 0.55
0.0 1.0 0.6
0.0 1.0 0.65
0.0 1.0 0.7
0.0 1.0 0.75
0.0 1.0 0.8
0.0 1.0 0.85
0.0 1.0 0.9
0.0 1.0 0.95
0.0 0.05 0.0
0.0 0.1 0.0
0.0 0.15 0.0
0.0 0.2 0.0
0.0 0.25 0.0
0.0 0.3 0.0
0.0 0.35 0.0
0.0 0.4 0.0
0.0 0.45 0.0
0.0 0.5 0.0
0.0 0.55 0.0
0.0 0.6 0.0
0.0 0.65 0.0
0.0 0.7 0.0
0.0 0.75 0.0
0.0 0.8 0.0
0.0 0.85 0.0
0.0 0.9 0.0
0.0 0.95 0.0
1.0 0.0 0.05
1.0 0.0 0.1
1.0 0.0 0.15
1.0 0.0 0.2
1.0 0.0 0.25
1.0 0.0 0.3
1.0 0.0 0.35
1.0 0.0 0.4
1.0 0.0 0.45
1.0 0.0 0.5
1.0 0.0 0.55
1.0 0.0 0.6
1.0 0.0 0.65
1.0 0.0 0.7
1.0 0.0 0.75
1.0 0.0 0.8
1.0 0.0 0.85
1.0 0.0 0.9
1.0 0.0 0.95
1.0 0.05 1.0
1.0 0.1 1.0
1.0 0.15 1.0
1.0 0.2 1.0
1.0 0.25 1.0
1.0 0.3 1.0
1.0 0.35 1.0
1.0 0.4 1.0
1.0 0.45 1.0
1.0 0.5 1.0
1.0 0.55 1.0
1.0 0.6 1.0
1.0 0.65 1.0
1.0 0.7 1.0
1.0 0.75 1.0
1.0 0.8 1.0
1.0 0.85 1.0
1.0 0.9 1.0
1.0 0.95 1.0
1.0 1.0 0.05
1.0 1.0 0.1
1.0 1.0 0.15
1.0 1.0 0.2
1.0 1.0 0.25
1.0 1.0 0.3
1.0 1.0 0.35
1.0 1.0 0.4
1.0 1.0 0.45
1.0 1.0 0.5
1.0 1.0 0.55
1.0 1.0 0.6
1.0 1.0 0.65
1.0 1.0 0.7
1.0 1.0 0.75
1.0 1.0 0.8
1.0 1.0 0.85
1.0 1.0 0.9
1.0 1.0 0.95
1.0 0.05 0.0
1.0 0.1 0.0
1.0 0.15 0.0
1.0 0.2 0.0
1.0 0.25 0.0
1.0 0.3 0.0
1.0 0.35 0.0
1.0 0.4 0.0
1.0 0.45 0.0
1.0 0.5 0.0
1.0 0.55 0.0
1.0 0.6 0.0
1.0 0.65 0.0
1.0 0.7 0.0
1.0 0.75 0.0
1.0 0.8 0.0
1.0 0.85 0.0
1.0 0.9 0.0
1.0 0.95 0.0
0.05 0.0 0.0
0.1 0.0 0.0
0.15 0.0 0.0
0.2 0.0 0.0
0.25 0.0 0.0
0.3 0.0 0.0
0.35 0.0 0.0
0.4 0.0 0.0
0.45 0.0 0.0
0.5 0.0 0.0
0.55 0.0 0.0
0.6 0.0 0.0
0.65 0.0 0.0
0.7 0.0 0.0
0.75 0.0 0.0
0.8 0.0 0.0
0.85 0.0 0.0
0.9 0.0 0.0
0.95 0.0 0.0
0.05 0.0 1.0
0.1 0.0 1.0
0.15 0.0 1.0
0.2 0.0 1.0
0.25 0.0 1.0
0.3 0.0 1.0
0.35 0.0 1.0
0.4 0.0 1.0
0.45 0.0 1.0
0.5 0.0 1.0
0.55 0.0 1.0
0.6 0.0 1.0
0.65 0.0 1.0
0.7 0.0 1.0
0.75 0.0 1.0
0.8 0.0 1.0
0.85 0.0 1.0
0.9 0.0 1.0
0.95 0.0 1.0
0.05 1.0 0.0
0.1 1.0 0.0
0.15 1.0 0.0
0.2 1.0 0.0
0.25 1.0 0.0
0.3 1.0 0.0
0.35 1.0 0.0
0.4 1.0 0.0
0.45 1.0 0.0
0.5 1.0 0.0
0.55 1.0 0.0
0.6 1.0 0.0
0.65 1.0 0.0
0.7 1.0 0.0
0.75 1.0 0.0
0.8 1.0 0.0
0.85 1.0 0.0
0.9 1.0 0.0
0.95 1.0 0.0
0.05 1.0 1.0
0.1 1.0 1.0
0.15 1.0 1.0
0.2 1.0 1.0
0.25 1.0 1.0
0.3 1.0 1.0
0.35 1.0 1.0
0.4 1.0 1.0
0.45 1.0 1.0
0.5 1.0 1.0
0.55 1.0 1.0
0.6 1.0 1.0
0.65 1.0 1.0
0.7 1.0 1.0
0.75 1.0 1.0
0.8 1.0 1.0
0.85 1.0 1.0
0.9 1.0 1.0
0.95 1.0 1.0
0.0 0.9660075803079927 0.5234502641688062
0.0 0.04775050631873338 0.4779352036097656
0.0 0.525 0.0433012701892219
0.0 0.4750000000000001 0.9566987298107783
0.0 0.03765546391606854 0.6745562492593203
0.0 0.675 0.9566987298107782
0.0 0.9524591108167588 0.3172940119650974
0.0 0.325 0.04330127018922192
0.0 0.675 0.04330127018922187
0.0 0.9592531641050752 0.6759211749144276
0.0 0.0475408891832412 0.3172940119650978
0.0 0.3250000000000002 0.9566987298107787
0.0 0.9551820067654404 0.8258577173075882
0.0 0.04330127018922187 0.8249999999999997
0.0 0.9601698491656778 0.1720762253242845
0.0 0.04213575824002981 0.1729812740871706
0.0 0.8249999999999997 0.9566987298107781
0.0 0.8249999999999997 0.04330127018922187
0.0 0.1732268599199324 0.9524393310781876
0.0 0.1752265955775911 0.04606718190417723
0.0 0.04595505248130761 0.5720774599652624
0.0 0.575 0.9566987298107782
0.0 0.4228355119980821 0.04490051865231111
0.0 0.9551316715106406 0.4225429761618901
0.0 0.9547151376279599 0.9204087190471304
0.0 0.0421848152207589 0.9230662432702592
0.0 0.9280278646281697 0.04144963431617405
0.0 0.0421848152207589 0.07693375672974065
0.0 0.8745913491193607 0.9569346645067195
0.0 0.8499318915198929 0.91343678207088
0.0 0.7999886485866488 0.9134040133631107
0.0 0.8249867566844233 0.8701038354641475
0.0 0.7749959008785116 0.8700985560612293
0.0 0.799997109593822 0.8267965880198972
0.0 0.7499988350787217 0.8267955918107259
0.0 0.7749993241120896 0.7834940392779572
0.0 0.7249996931984679 0.7834938261858376
0.0 0.749999836218425 0.7401924734240046
0.0 0.6999999215694813 0.7401924241465498
0.0 0.7249999596313166 0.6968911319823166
0.0 0.674999980200132 0.6968911201069058
0.0 0.6999999899719069 0.6535898442759466
0.0 0.6499999950286722 0.6535898413564222
0.0 0.6749999975000956 0.6102885697403229
0.0 0.6249999987547936 0.6102885690159232
0.0 0.6499999993758139 0.5669872984681545
0.0 0.5999999996884333 0.566987298287664
0.0 0.6249999998440398 0.5236860280086023
0.0 0.5749999999220776 0.5236860279635475
0.0 0.549999999935084 0.5669872981452606
0.0 0.5249999999761923 0.5236860279323048
0.0 0.4999999999852117 0.5669872981163195
0.0 0.4749999999935661 0.5236860279222741
0.0 0.5999999999610182 0.480384757751843
0.0 0.449999999996462 0.5669872981098245
0.0 0.4249999999983369 0.5236860279195201
0.0 0.4499999999986493 0.4803847577301176
0.0 0.3999999999994965 0.4803847577296287
0.0 0.4249999999996897 0.437083487540295
0.0 0.399999999999132 0.5669872981082829
0.0 0.3749999999998631 0.437083487540195
0.0 0.4249999999992647 0.6102885682974282
0.0 0.3749999999999291 0.6102885682970447
0.0 0.399999999999924 0.3937822173509377
0.0 0.6499999999675081 0.4803847577480957
0.0 0.6249999999968969 0.4370834875419062
0.0 0.3499999999999631 0.3937822173509152
0.0 0.3999999999998648 0.6535898384863038
0.0 0.3499999999999647 0.6535898384862463
0.0 0.3749999999999797 0.3504809471616837
0.0 0.6749999999940657 0.4370834875435404
0.0 0.6499999999984918 0.3937822173517629
0.0 0.324999999999989 0.3504809471616786
0.0 0.3249999999999812 0.6102885682970147
0.0 0.2999999999999902 0.6535898384862319
0.0 0.6249999958714665 0.6968911110590567
0.0 0.4249999999999824 0.3504809471616818
0.0 0.2999999999999907 0.3937822173508996
0.0 0.6999999999987577 0.3937822173516091
0.0 0.6749999999998778 0.3504809471617406
0.0 0.3749999999999708 0.6968911086754648
0.0 0.3999999999999961 0.307179676972452
0.0 0.4499999999999948 0.3071796769724525
0.0 0.7249999999988025 0.4370834875408053
0.0 0.7249999979119996 0.610288569502509
0.0 0.7249999999997706 0.350480947161802
0.0 0.6999999999999389 0.3071796769724828
0.0 0.2749999999999951 0.3504809471616752
0.0 0.274999999999994 0.6102885682970076
0.0 0.7499999999999494 0.3071796769724765
0.0 0.7249999999999917 0.2638784067832302
0.0 0.6749999999999853 0.2638784067832338
0.0 0.2499999999999964 0.3937822173508967
0.0 0.4249999999999967 0.2638784067832294
0.0 0.2499999999999973 0.6535898384862281
0.0 0.2999999999999957 0.3071796769724527
0.0 0.2499999999999969 0.3071796769724522
0.0 0.274999999999997 0.26387840678323
0.0 0.4249999999999718 0.6968911086754638
0.0 0.3999999999999899 0.7401923788646757
0.0 0.349999999999993 0.740192378864674
0.0 0.4499999999999929 0.7401923788646735
0.0 0.4749999999999968 0.2638784067832292
0.0 0.6749999357946579 0.7834936861228631
0.0 0.7749999999999877 0.263878406783232
0.0 0.2249999999999973 0.26387840678323
0.0 0.2499999999999974 0.220577136594008
0.0 0.7499999999999942 0.2205771365940064
0.0 0.7749999999999521 0.350480947161697
0.0 0.7749999659749554 0.696891128319814
0.0 0.2249999999999975 0.6102885682970062
0.0 0.4249999999999964 0.7834936490538934
0.0 0.4749999999999975 0.7834936490538926
0.0 0.4499999999999971 0.2205771365940071
0.0 0.4999999999999969 0.2205771365940071
0.0 0.2749999999999967 0.4370834875401181
0.0 0.2249999999999984 0.4370834875401178
0.0 0.4749999999999948 0.3504809471616744
0.0 0.1999999999999978 0.3937822173508962
0.0 0.8249994056176512 0.7834939922206989
0.0 0.7999999999999949 0.2205771365940059
0.0 0.1999999999999974 0.2205771365940082
0.0 0.1999999999999985 0.6535898384862279
0.0 0.224999999999999 0.6968911086754495
0.0 0.5249999999867148 0.6102885683046733
0.0 0.3999999999999972 0.2205771365940073
0.0 0.6249999999997262 0.3504809471618282
0.0 0.174999999999999 0.6968911086754499
0.0 0.1999999999999995 0.7401923788646716
0.0 0.7749999999999951 0.1772758664047835
0.0 0.7249999999999952 0.177275866404784
0.0 0.2255426114710358 0.1775891432836556
0.0 0.2750904352451703 0.1773280792179309
0.0 0.474999999999997 0.1772758664047851
0.0 0.5249999999999966 0.1772758664047849
0.0 0.8249999999999977 0.2638784067832279
0.0 0.1749999999999974 0.2638784067832303
0.0 0.8249999999999985 0.1772758664047836
0.0 0.1783807464468915 0.1788086569008251
0.0 0.1749999999999984 0.4370834875401183
0.0 0.1752103666636529 0.6101671130471163
0.0 0.1519123827494026 0.7390882641695106
0.0 0.1772311132076367 0.7822055152428719
0.0 0.2253718522012726 0.7832789600853893
0.0 0.2499999999999974 0.5669872981077838
0.0 0.5749999999929842 0.4370834875441654
0.0 0.4999999999999976 0.7401923788646704
0.0 0.524999999999999 0.7834936490538916
0.0 0.5249999999999971 0.2638784067832288
0.0 0.4999999999999989 0.8267949192431138
0.0 0.5499999999999994 0.8267949192431134
0.0 0.2004338275681515 0.8247201897235739
0.0 0.2501342799615707 0.8264133494951073
0.0 0.2506481192570709 0.1343487880431026
0.0 0.749999999999995 0.1339745962155619
0.0 0.1499999999999981 0.3937822173508967
0.0 0.1441518832287397 0.8236685431513099
0.0 0.5749999999999992 0.7834936490538915
0.0 0.3499999999998921 0.4803847577294003
0.0 0.4749999999997218 0.4370834875402761
0.0 0.5999999999999993 0.8267949192431138
0.0 0.5249999999999997 0.8700961894323352
0.0 0.7249991226595394 0.8700966959650869
0.0 0.1999999999999987 0.4803847577293398
0.0 0.149999999999999 0.4803847577293406
0.0 0.2190360452002263 0.8732354371653731
0.0 0.4749999999999996 0.8700961894323356
[...]
POINT_DATA 6754
SCALARS solution float 1
LOOKUP_TABLE default
1.0
0.0
1.0
0.0
1.0
0.0
1.0
0.0
0.05
0.1
0.15
0.2
0.25
0.3
0.35
0.4
0.45
0.5
0.55
0.6
0.65
0.7
0.75
0.8
0.85
0.9
0.95
1.0
1.0
1.0
1.0
1.0
1.0
1.0
1.0
1.0
1.0
1.0
1.0
1.0
1.0
1.0
1.0
1.0
1.0
1.0
0.05
0.1
0.15
0.2
0.25
0.3
0.35
0.4
0.45
0.5
0.55
0.6
0.65
0.7
0.75
0.8
0.85
0.9
0.95
0.0
0.0
0.0
0.0
0.0
0.0
0.0
0.0
0.0
0.0
0.0
0.0
0.0
0.0
0.0
0.0
0.0
0.0
0.0
0.05
0.1
0.15
0.2
0.25
0.3
0.35
0.4
0.45
0.5
0.55
0.6
0.65
0.7
0.75
0.8
0.85
0.9
0.95
1.0
1.0
1.0
1.0
1.0
1.0
1.0
1.0
1.0
1.0
1.0
1.0
1.0
1.0
1.0
1.0
1.0
1.0
1.0
0.05
0.1
0.15
0.2
0.25
0.3
0.35
0.4
0.45
0.5
0.55
0.6
0.65
0.7
0.75
0.8
0.85
0.9
0.95
0.0
0.0
0.0
0.0
0.0
0.0
0.0
0.0
0.0
0.0
0.0
0.0
0.0
0.0
0.0
0.0
0.0
0.0
0.0
0.0
0.0
0.0
0.0
0.0
0.0
0.0
0.0
0.0
0.0
0.0
0.0
0.0
0.0
0.0
0.0
0.0
0.0
0.0
1.0
1.0
1.0
1.0
1.0
1.0
1.0
1.0
1.0
1.0
1.0
1.0
1.0
1.0
1.0
1.0
1.0
1.0
1.0
0.0
0.0
0.0
0.0
0.0
0.0
0.0
0.0
0.0
0.0
0.0
0.0
0.0
0.0
0.0
0.0
0.0
0.0
0.0
1.0
1.0
1.0
1.0
1.0
1.0
1.0
1.0
1.0
1.0
1.0
1.0
1.0
1.0
1.0
1.0
1.0
1.0
1.0
0.5234502641688062
0.4779352036097656
0.0433012701892219
0.9566987298107783
0.6745562492593203
0.9566987298107782
0.3172940119650974
0.04330127018922192
0.04330127018922187
0.6759211749144276
0.3172940119650978
0.9566987298107787
0.8258577173075882
0.8249999999999997
0.1720762253242845
0.1729812740871706
0.9566987298107781
0.04330127018922187
0.9524393310781876
0.04606718190417723
0.5720774599652624
0.9566987298107782
0.04490051865231111
0.4225429761618901
0.9204087190471304
0.9230662432702592
0.04144963431617405
0.07693375672974065
0.9569346645067195
0.91343678207088
0.9134040133631107
0.8701038354641475
0.8700985560612293
0.8267965880198972
0.8267955918107259
0.7834940392779572
0.7834938261858376
0.7401924734240046
0.7401924241465498
0.6968911319823166
0.6968911201069058
0.6535898442759466
0.6535898413564222
0.6102885697403229
0.6102885690159232
0.5669872984681545
0.566987298287664
0.5236860280086023
0.5236860279635475
0.5669872981452606
0.5236860279323048
0.5669872981163195
0.5236860279222741
0.480384757751843
0.5669872981098245
0.5236860279195201
0.4803847577301176
0.4803847577296287
0.437083487540295
0.5669872981082829
0.437083487540195
0.6102885682974282
0.6102885682970447
0.3937822173509377
0.4803847577480957
0.4370834875419062
0.3937822173509152
0.6535898384863038
0.6535898384862463
0.3504809471616837
0.4370834875435404
0.3937822173517629
0.3504809471616786
0.6102885682970147
0.6535898384862319
0.6968911110590567
0.3504809471616818
0.3937822173508996
0.3937822173516091
0.3504809471617406
0.6968911086754648
0.307179676972452
0.3071796769724525
0.4370834875408053
0.610288569502509
0.350480947161802
0.3071796769724828
0.3504809471616752
0.6102885682970076
0.3071796769724765
0.2638784067832302
0.2638784067832338
0.3937822173508967
0.2638784067832294
0.6535898384862281
0.3071796769724527
0.3071796769724522
0.26387840678323
0.6968911086754638
0.7401923788646757
0.740192378864674
0.7401923788646735
0.2638784067832292
0.7834936861228631
0.263878406783232
0.26387840678323
0.220577136594008
0.2205771365940064
0.350480947161697
0.696891128319814
0.6102885682970062
0.7834936490538934
0.7834936490538926
0.2205771365940071
0.2205771365940071
0.4370834875401181
0.4370834875401178
0.3504809471616744
0.3937822173508962
0.7834939922206989
0.2205771365940059
0.2205771365940082
0.6535898384862279
0.6968911086754495
0.6102885683046733
0.2205771365940073
0.3504809471618282
0.6968911086754499
0.7401923788646716
0.1772758664047835
0.177275866404784
0.1775891432836556
0.1773280792179309
0.1772758664047851
0.1772758664047849
0.2638784067832279
0.2638784067832303
0.1772758664047836
0.1788086569008251
0.4370834875401183
0.6101671130471163
0.7390882641695106
0.7822055152428719
0.7832789600853893
0.5669872981077838
0.4370834875441654
0.7401923788646704
0.7834936490538916
0.2638784067832288
0.8267949192431138
0.8267949192431134
0.8247201897235739
0.8264133494951073
0.1343487880431026
0.1339745962155619
0.3937822173508967
0.8236685431513099
0.7834936490538915
0.4803847577294003
0.4370834875402761
0.8267949192431138
0.8700961894323352
0.8700966959650869
0.4803847577293398
0.4803847577293406
0.8732354371653731
0.8700961894323356
0.8705558024298409
0.8268079264513638
0.8701749594666277
0.1342808378582969
0.1342097704181814
0.1773150621052206
0.1342554987353575
0.1773292161081561
0.1340303049194235
0.1342097704181822
0.1354049245096776
0.8701040175125245
0.3504809471616744
0.2638784067832297
0.523686027918562
0.5236860279185628
0.1773356088140987
0.1326918639511848
0.8268102154502041
0.8701118671392326
0.9133974596215587
0.3504007893013956
0.3961060191161237
0.6972779166881704
0.7438770512270401
0.09067332602634046
0.0906733260263421
0.09072805002006637
0.09067332602634018
0.09067332602633978
0.09124401915465857
0.0906733260263405
0.4807085240561344
0.5243990856095849
0.5684297670215585
0.6138688937304884
0.9133990307720905
0.7401923948923226
0.8267956778704031
0.7834938326862396
0.7401924666645274
0.7407105726574601
0.6974956374949792
0.7825117154406819
0.734663570991699
0.8264765250416289
0.8718740730884048
0.3937822173511535
0.4370834875402732
0.4803847577294785
0.4803847577293496
0.4370834875401431
0.4803847577293432
0.5236860279185618
0.5228146159851987
0.5668420627855544
0.5669630922207427
0.6102603280954578
0.6102596557097071
0.4378155128868425
0.393904221575352
0.3958884710580292
0.3504809471616711
0.3505012811990849
0.3071830659786852
0.3087858064453187
0.2641466598630788
0.2684672691445836
0.2229873806586932
0.2210235527847622
0.1786155573708446
0.1344330522458572
0.13788428115579
0.09052927333103752
0.3938059403946172
0.4793246804233706
0.8746777072117096
0.8996239917469953
0.9539420065121318
0.9245852800472383
0.8761714083400267
0.9005300391090317
0.849479358594204
0.798260607560456
0.7725291959321522
0.7401565973699202
0.5669872981077851
0.5236860279185614
0.5669872981078748
0.3071663173290727
0.3087696553603381
0.5670760372702489
0.6125599890201376
0.2205850061011331
0.2205873397957562
0.2638795044939231
0.5236860279185869
0.2641411765739816
0.2684636634155711
0.224021035615605
0.9566987298107783
0.8267949192431141
0.7401923788646694
0.6968911086754475
0.6968911090727153
0.7401923819994246
0.6537275433040413
0.3937822173509185
0.3937822173509254
0.3504809471616778
0.4803847577435525
0.6968911086754559
0.6102885682981385
0.4803847577331731
0.5236860279192217
0.3504809471616744
0.4803847577347736
0.9566987298107783
0.9133974596215564
0.5236860279975046
0.3071798599242763
0.3749999999999999
0.4238710550412313
0.5236860279188822
0.2254790882344815
0.3749999999999999
0.3071774503652223
0.04243219786276164
0.08660254037844384
0.7833904768867239
0.125
0.1003222927882901
0.04605031985005213
0.07500000000000004
0.1239294267054646
0.1020487600184223
0.9566987298107785
0.9566987298107785
0.4764644452418436
0.6535898427333731
0.2205957957977507
0.1777494286564235
0.4370834875401192
0.1230337707783795
0.2244268895818956
0.5669872983704343
0.6535898384865013
0.1480295384484991
0.6102885684543286
0.4370834875401444
0.2638784067832296
0.3071796769724521
0.3071796769724515
0.3071836308130672
0.2215805008424492
0.6535898395741118
0.6535851357678854
0.4370834875440979
0.3071796769724544
0.220584980795268
0.3937822173520381
0.4803847577293583
0.1773861360068333
0.870098802383485
0.8700961894323351
0.1342861797565637
0.2206085817965249
0.8700961894323358
0.8267949254212759
0.3937822173512939
0.4803847577293426
0.6535898384877388
0.7834961984217421
0.7834936490538921
0.696891108675749
0.8267951524896879
0.9567000839594597
0.9133978059021048
0.826800941948612
0.6968851450929927
0.5669670555661355
0.9134132009117552
0.9133974596215566
0.3504809471619564
0.7401924902211494
0.6532576264733418
0.6536249153694692
0.696996962306304
0.7834936594554819
0.9133974596215567
0.5236819936041889
0.3071798904162774
0.5670359409328604
0.9569009595501573
0.6102790444046244
0.1772957433396152
0.134261563725067
0.6535898387615025
0.9133989360874502
0.5236826541616209
0.7401682259906096
0.9566989285218915
0.9133974596215567
0.9133981411910641
0.2205821499501035
0.9134898136752235
0.2638811614019567
0.9151454323686808
0.5669810043369534
0.9567478271096196
0.870096371472008
0.724282525723502
0.5727518806802678
0.04269429108388001
0.0353337774598888
0.09314196702357232
0.09864462030980402
0.1267475468331214
0.04488993513937024
0.09863479607577559
0.04189022497350659
0.04014166688945501
0.09862263827908826
0.04189022497350645
0.04014166688945444
0.0425438253544839
0.6108395610095338
0.1749220682704742
0.0943486835622663
0.6539614807607756
0.9589715103227988
0.135854257488781
0.6955518044779674
0.6903425650761923
0.3498140843024874
0.3497520893615261
0.0741782240231751
0.625
0.625
0.4421410521446958
0.4414756396204546
0.275
0.2750000000000001
0.8736281018886247
0.03347538877092376
0.9665063509461104
0.525
0.1824573519457079
0.5184575563183917
0.7780208718850256
0.8592845606473135
0.9188702367904186
0.7772625575881484
0.03660254037844386
0.9633974596215561
0.9633974596215567
0.08528698158739634
0.03623725548223078
0.09089705938422094
0.1878876445230239
0.1409564626071766
0.648125142811284
0.6498581621896767
0.1419600625532856
0.5234502641688077
0.475
0.0433012701892219
0.956698729810778
0.675
0.9566987298107787
0.3172940119650964
0.04400007911795476
0.04330127018922187
0.6759211749144287
0.325
0.9568075428514708
0.8254830831794702
0.8260694983689228
0.1716711208726911
0.175
0.956698729810778
0.04191013759554442
0.9587815487552082
0.04332877922981172
0.5750000000000001
0.9566987298107787
0.04306609598660273
0.4236786219661158
0.9266515428715897
0.9184099872057414
0.0421848152207589
0.07521186846404382
0.956934664506719
0.9134367820708795
0.9134040133631103
0.8701038354641472
0.8700985560612291
0.8267965880198971
0.8267955918107256
0.7834940392779567
0.7834938261858375
0.7401924734240041
0.74019242414655
0.6968911319823163
0.6968911201069062
0.6535898442759469
0.6535898413564226
0.6102885697403234
0.6102885690159235
0.5669872984681552
0.5669872982876643
0.5236860280086028
0.5236860279635476
0.5669872981452604
0.5236860279323045
0.5669872981163193
0.5236860279222739
0.4803847577518432
0.5669872981098241
0.5236860279195195
0.4803847577301172
0.480384757729628
0.4370834875402945
0.5669872981082821
0.4370834875401943
0.6102885682974277
0.6102885682970438
0.3937822173509372
0.4803847577480961
0.4370834875419066
0.3937822173509145
0.653589838486303
0.6535898384862449
0.350480947161683
0.437083487543541
0.3937822173517636
0.3504809471616775
0.610288568297013
0.6535898384862296
0.6968911110590581
0.3504809471616814
0.3937822173508985
0.39378221735161
0.3504809471617413
0.6968911086754633
0.3071796769724515
0.3071796769724523
0.4370834875408064
0.610288569502511
0.3504809471618031
0.3071796769724839
0.3504809471616738
0.610288568297005
0.3071796769724778
0.2638784067832313
0.2638784067832349
0.3927662288399933
0.2638784067832292
0.6535898384862253
0.6968911086754634
0.7401923788646745
0.7401923788646736
0.263878406783229
0.6968911086754475
0.2638784067832295
0.7834936861228643
0.6968911086754457
0.740192378864668
0.2638784067832334
0.2205771365940076
0.3504809471616988
0.6968911283198145
0.3503116157431888
0.30715145506937
0.6111182705224207
0.7834936490538933
0.7834936490538935
0.2205771365940069
0.220577136594007
0.7401923788646673
0.7834936490538895
0.3071467514188561
0.2638757539191145
0.3957577247032599
0.3504809471616744
0.4330410391003332
0.7834939922206987
0.2205771365940071
0.6102885683046737
0.7834936490538902
0.3504809471618291
0.8274512971015706
0.8288904444214962
0.8267122106731547
0.2642881897634243
0.2206449916133532
0.1772758664047847
0.1772758664047853
0.1775110406074041
0.177550236307841
0.1775502363078405
0.2638784067832284
0.1765770574760516
0.6968911086754449
0.7401923788646665
0.7401923788646718
0.7834936490538937
0.8267949192431148
0.4370834875441654
0.5680293502914036
0.1339745962155632
0.2215682489569766
0.177242776596597
0.3040809114205965
0.8707691759920021
0.826794919243114
0.8700961894323356
0.4370834875402759
0.1772816606066442
0.8700966959650871
0.4801478781898048
0.8700961894323358
0.8700961894323351
0.1342097704181828
0.1773150621052221
0.1342554987353593
0.1773292161081582
0.1351659186564015
0.1774833117621551
0.2206206024374651
0.1339745962155653
0.1773104406310149
0.1339745962155655
0.1339745962155631
0.1342052211504604
0.1320765963412534
0.134013999405022
0.8692666762861765
0.740192378864672
0.7834936490538943
0.8267949192431155
0.8267949192431169
0.696891108675449
0.7834798642922312
0.2638784067832288
0.9134935120614084
0.8700961894323374
0.8700961894323401
0.6974092572295367
0.6536761965785713
0.7407968855111069
0.7844859490814806
0.09069050889380545
0.08937460110734709
0.09067332602634151
0.08972015557125847
0.09004049365347139
0.6516248603007296
0.6148834037168145
0.7827267504923849
0.8279083777177659
0.8707302637326784
0.873337347317821
0.734600323337712
0.8293117383324821
0.8733355756481584
0.8725500246659531
0.914439844764884
0.9160007383258606
0.9138564928318398
0.8267949254212781
0.8700962748841554
0.7401923792619398
0.9133990307720903
0.2206247174985173
0.2638935812412243
0.7834936563279609
0.8801007046244776
0.7834913515936158
0.7401900814043918
0.30717967697246
0.3504809471616785
0.3937822173509001
0.3948185144590808
0.4372562037248156
0.4385614685161371
0.4806598739227924
0.4804380711076902
0.5237407661805284
0.5236860279185604
0.5669964211514441
0.5669979416587215
0.610291862729438
0.6102908912942336
0.6535907747245029
0.3504809471616739
0.4797394430787641
0.5672524583354271
0.6125945984617555
0.3071796769724525
0.2638784067832271
0.3087852416109461
0.2684224661588789
0.2205771365940039
0.04330127018922277
0.086416464550367
0.08144394724531924
0.1277048964628693
0.1299292576634669
0.08476643775717592
0.6102885682981387
0.1353125522625147
0.9566987298107787
0.9133974596215564
0.6535898394816806
0.6102885686202382
0.6535898387072862
0.696891109341681
0.653589838524537
0.6968911086818369
0.2206228649111835
0.7401924303463598
0.7401924446394195
0.7834937172108178
0.7407105497407086
0.7824492533539691
0.7346571949709411
0.6974957860443844
0.7401923961708798
0.4803847577331504
0.6252708100501216
0.04302690028616643
0.08660254037844377
0.4803847577435525
0.2206228649111825
0.5249999999999999
0.5
0.45
0.4749999999999999
0.5238361773745663
0.4998060295624276
0.4249999999999999
0.4
0.55
0.5272931398550827
0.4787916649661217
0.5077728647242588
0.3769463073765308
0.9566987298107785
0.04464499979560933
0.5671609734718103
0.5609151494529631
0.225
0.2001379604796974
0.2494843685350953
0.1501609538929804
0.3734954389885353
0.3961581032697487
0.04314336844095504
0.08745674238066985
0.4365987421985532
0.125062137059504
0.9567147385507535
0.4767710881898258
0.04412162164016193
0.3529200296799922
0.2749140614225158
0.3008641316511192
0.2260888493495485
0.653589838493951
0.1300304209868446
0.8265863492314298
0.4370834875431869
0.3937822173513268
0.5228080065824384
0.307179676972495
0.3749999999999999
0.3523345560208605
0.55
0.09485119278066186
0.3937822173509183
0.4436204251009307
0.784427756436447
0.4249999999999999
0.5236754938896007
0.5236860279973912
0.6537425152058514
0.653589842733374
0.5669872983703699
0.6968907257654073
0.3071796769724518
0.4803847577352852
0.3937822173521108
0.3504809471619738
0.2205965907063845
0.3937822173515091
0.3071796769724534
0.3071749733219385
0.2205998051352195
0.9567000839594595
0.3937822173511559
0.3504809471617548
0.8267949192431155
0.1775629840332647
0.603343280247335
0.9099395500600744
0.8266582880741417
0.2205874473009501
0.2638833407852031
0.7401892517659638
0.5246525862257787
0.9566988567240098
0.2215962821761918
0.9133978412962797
0.826795166731658
0.4371211591341178
0.4803902840277381
0.3071822060488478
0.2638919582570151
0.3071848861405642
0.2638892875230464
0.523686949025832
0.2205855649338846
0.8254038600298045
0.1775715574051279
0.5669889723776205
0.6102909178301019
0.65359093916878
0.9568315946207164
0.9134161364848611
0.8700961894323346
0.6969922505405434
0.6532687814423143
0.9133974596215583
0.9133974596215579
0.9133975374759817
0.9579121307744051
0.9147541386231927
0.9138083157012071
0.8703047889769946
0.5727628672747513
0.08519149516273017
0.08407955711596173
0.0448405151503871
0.09862607485258218
0.1370904164919899
0.04189022497350697
0.1352598429601122
0.04189022497350654
0.08066090481824176
0.05047805405911187
0.08962399746009407
0.1721759102045804
0.9574652562792301
0.9155033104890782
0.9590949557413526
0.04179787054388524
0.4824021021947894
0.9582019702019942
0.1758423474307601
0.958943197758171
0.2624500344909862
0.6000000000000009
0.08816703124199712
0.4336917240660056
0.6955522215341665
0.6999187609112975
0.3500000000000013
0.5694904293320127
0.6250000000000001
0.2750000000000001
0.4420717317966965
0.125
0.5719655114602892
0.8620387748360007
0.5198475496249894
0.7780208718850329
0.778192269884499
0.8750000000000006
0.3988488973721427
0.5299383410202824
0.3365176723297884
0.03660254037844386
0.03660254037844325
0.9633974596215561
0.9633974596215567
0.1739706173892686
0.04032639829938037
0.03882515133689596
0.09748700844819624
0.1261255619200414
0.08124782391605676
0.09308030515142936
0.1249999999999999
0.2249999999999998
0.1983058958965759
0.4671398790103018
0.6481285088074056
0.5250000000000002
0.5229978213352509
0.04206180411019406
0.9559346299080671
0.3271997259764525
0.9524591108167579
0.325
0.04125672164983694
0.7249999999999999
0.675
0.04334119314008938
0.9637719219672448
0.8249999999999997
0.04443981866266791
0.175
0.9555728489640947
0.9601698491656778
0.175
0.03983015083432317
0.8249999999999996
0.04486832848935888
0.425
0.4250000000000002
0.6250000000000001
0.9580745561631434
0.9547151376279601
0.0452848623720395
0.9280278646281701
0.0719721353718305
0.8745913491193609
0.849931891519893
0.7999886485866483
0.8249867566844227
0.7749959008785112
0.7999971095938215
0.7499988350787217
0.775347576868531
0.7250577353245413
0.7504158047886191
0.7000789233521926
0.725180374734896
0.6750432163478475
0.7001351852252182
0.6500297335955105
0.6757510811322627
0.6251301357879617
0.6508184440262392
0.6001580966356999
0.6251107366543837
0.5750228599736462
0.5500301594348906
0.5249999999999997
0.5000050265724814
0.47500083776208
0.6000222661046714
0.4500009773890934
0.4249999999999998
0.4500001396270132
0.400000023271169
0.425000027149697
0.4000001628981822
0.3750000042874886
0.4750010006602621
0.4000000052395309
0.6499650004185382
0.6249978777538683
0.3500000011341691
0.3750000010622835
0.6749886664433697
0.6499977573662068
0.3250000000000002
0.3250000009036095
0.650020356616673
0.4250000010503024
0.7000000000000002
0.6749996262277016
0.3500000001770476
0.3000000000295084
0.7250000000000001
0.7263565323458827
0.7249999377046175
0.6999999735138683
0.6499999332902621
0.7499999852030813
0.7250000000000006
0.3250000000344265
0.2750000000054373
0.2500000000058246
0.3750000000352461
0.2250000000000008
0.7749999975338474
0.7499999995889755
0.6999999999314968
0.2500000000009072
0.7760853533888922
0.7755165831724278
0.5999992725200127
0.3500000000116129
0.4000000000078106
0.825727847780557
0.2000000000001521
0.7999999995204711
0.2000000000009712
0.2250000000011328
0.6000266448972449
0.7000094284005428
0.1731213216447826
0.1996868869409859
0.7249999999200797
0.6749999999752636
0.2250000000001775
0.3750000000032382
0.4250000000018422
0.4500000000016094
0.4750000000005759
0.5000000000003649
0.5250000000001576
0.8249999995090533
0.1750000000000292
0.1500000000000309
0.4750000277961183
0.5500000000000875
0.525000000000001
0.8499999998382546
0.8250000000000014
0.1477560230753932
0.1745738183360629
0.2248767842128412
0.1999084337581503
0.1499137086823686
0.1749999999999995
0.2249847389596911
0.1999974564932812
0.2499970325754948
0.2250102088542024
0.2750012069049491
0.2500114758094429
0.3000021137857316
0.2750003626391356
0.3250004127374774
0.3000001292294349
0.3500000903278181
0.2499985278182725
0.2749997761746173
0.2249997173321475
0.1999742837037058
0.249999978025942
0.1999999492263473