# vtk DataFile Version 3.0
FEM Solution
ASCII
DATASET UNSTRUCTURED_GRID
POINTS 140 float
0.0 0.0 1.0
0.0 0.0 0.0
0.0 1.0 1.0
0.0 1.0 0.0
1.0 0.0 1.0
1.0 0.0 0.0
1.0 1.0 1.0
1.0 1.0 0.0
0.0 0.0 0.2499999999999997
0.0 0.0 0.4999999999999988
0.0 0.0 0.7499999999999989
0.0 0.2499999999999997 1.0
0.0 0.4999999999999988 1.0
0.0 0.7499999999999989 1.0
0.0 1.0 0.2499999999999997
0.0 1.0 0.4999999999999988
0.0 1.0 0.7499999999999989
0.0 0.2499999999999997 0.0
0.0 0.4999999999999988 0.0
0.0 0.7499999999999989 0.0
1.0 0.0 0.2499999999999997
1.0 0.0 0.4999999999999988
1.0 0.0 0.7499999999999989
1.0 0.2499999999999997 1.0
1.0 0.4999999999999988 1.0
1.0 0.7499999999999989 1.0
1.0 1.0 0.2499999999999997
1.0 1.0 0.4999999999999988
1.0 1.0 0.7499999999999989
1.0 0.2499999999999997 0.0
1.0 0.4999999999999988 0.0
1.0 0.7499999999999989 0.0
0.2499999999999997 0.0 0.0
0.4999999999999988 0.0 0.0
0.7499999999999989 0.0 0.0
0.2499999999999997 0.0 1.0
0.4999999999999988 0.0 1.0
0.7499999999999989 0.0 1.0
0.2499999999999997 1.0 0.0
0.4999999999999988 1.0 0.0
0.7499999999999989 1.0 0.0
0.2499999999999997 1.0 1.0
0.4999999999999988 1.0 1.0
0.7499999999999989 1.0 1.0
0.0 0.7834936490538906 0.6249999999999989
0.0 0.2046118127312859 0.6359641041884292
0.0 0.6239406576797799 0.2116930112639576
0.0 0.3759949993707399 0.2114006558410865
0.0 0.4999999999999995 0.4330127018922183
0.0 0.7874036008069083 0.3671197358413988
0.0 0.5203442540690995 0.7082726776397392
0.0 0.2365667220822624 0.3989630255083483
0.0 0.6896861734925073 0.8231510809247649
0.0 0.3749999999999993 0.8447098097131593
0.0 0.8169872981077801 0.1830127018922196
0.0 0.1830127018922192 0.1830127018922192
0.0 0.1780977805306458 0.8250407933257091
0.0 0.3832210891220216 0.5884011055039227
0.0 0.8540734935786142 0.8515195403519169
1.0 0.6249999999999989 0.7834936490538906
1.0 0.6359641041884292 0.2046118127312859
1.0 0.2116930112639576 0.6239406576797799
1.0 0.2114006558410861 0.3759949993707395
1.0 0.433012701892218 0.4999999999999987
1.0 0.3671197358413987 0.7874036008069082
1.0 0.708272677639739 0.520344254069099
1.0 0.3989630255083481 0.2365667220822622
1.0 0.8231510809247647 0.6896861734925068
1.0 0.8447098097131593 0.3749999999999992
1.0 0.1830127018922196 0.8169872981077801
1.0 0.1830127018922189 0.1830127018922189
1.0 0.8250407933257091 0.1780977805306459
1.0 0.5884011055039224 0.3832210891220214
1.0 0.8515195403519167 0.8540734935786141
0.7834936490538906 0.0 0.6249999999999989
0.2046118127312859 0.0 0.6359641041884292
0.6239406576797799 0.0 0.2116930112639576
0.3759949993707395 0.0 0.2114006558410861
0.4999999999999987 0.0 0.433012701892218
0.7874036008069082 0.0 0.3671197358413987
0.520344254069099 0.0 0.708272677639739
0.2365667220822622 0.0 0.3989630255083481
0.6896861734925068 0.0 0.8231510809247647
0.3749999999999992 0.0 0.8447098097131593
0.8169872981077801 0.0 0.1830127018922196
0.1830127018922189 0.0 0.1830127018922189
0.1780977805306459 0.0 0.8250407933257091
0.3832210891220214 0.0 0.5884011055039224
0.8540734935786141 0.0 0.8515195403519167
0.7834936490538906 1.0 0.6249999999999989
0.2046118127312859 1.0 0.6359641041884292
0.6239406576797799 1.0 0.2116930112639576
0.3759949993707395 1.0 0.2114006558410861
0.4999999999999987 1.0 0.433012701892218
0.7874036008069082 1.0 0.3671197358413987
0.520344254069099 1.0 0.708272677639739
0.2365667220822622 1.0 0.3989630255083481
0.6896861734925068 1.0 0.8231510809247647
0.3749999999999992 1.0 0.8447098097131593
0.8169872981077801 1.0 0.1830127018922196
0.1830127018922189 1.0 0.1830127018922189
0.1780977805306459 1.0 0.8250407933257091
0.3832210891220214 1.0 0.5884011055039224
0.8540734935786141 1.0 0.8515195403519167
0.6249999999999989 0.7834936490538906 0.0
0.6359641041884292 0.2046118127312859 0.0
0.2116930112639576 0.6239406576797799 0.0
0.2114006558410861 0.3759949993707395 0.0
0.433012701892218 0.4999999999999987 0.0
0.3671197358413987 0.7874036008069082 0.0
0.708272677639739 0.520344254069099 0.0
0.3989630255083481 0.2365667220822622 0.0
0.8231510809247647 0.6896861734925068 0.0
0.8447098097131593 0.3749999999999992 0.0
0.1830127018922196 0.8169872981077801 0.0
0.1830127018922189 0.1830127018922189 0.0
0.8250407933257091 0.1780977805306459 0.0
0.5884011055039224 0.3832210891220214 0.0
0.8515195403519167 0.8540734935786141 0.0
0.6249999999999989 0.7834936490538906 1.0
0.6359641041884292 0.2046118127312859 1.0
0.2116930112639576 0.6239406576797799 1.0
0.2114006558410861 0.3759949993707395 1.0
0.433012701892218 0.4999999999999987 1.0
0.3671197358413987 0.7874036008069082 1.0
0.708272677639739 0.520344254069099 1.0
0.3989630255083481 0.2365667220822622 1.0
0.8231510809247647 0.6896861734925068 1.0
0.8447098097131593 0.3749999999999992 1.0
0.1830127018922196 0.8169872981077801 1.0
0.1830127018922189 0.1830127018922189 1.0
0.8250407933257091 0.1780977805306459 1.0
0.5884011055039224 0.3832210891220214 1.0
0.8515195403519167 0.8540734935786141 1.0
0.6865932260822657 0.6758445465723439 0.3064905125447205
0.646949433875084 0.6763949802286895 0.6670469709502463
0.3100767724547189 0.5183786997980978 0.3958324152058512
0.4828076092463626 0.365145756250141 0.593143587814973
0.3090451269191328 0.7175693844628941 0.6585087434046686
0.663002329745876 0.3075439416075523 0.2879764494570969
CELLS 367 1835
4 134 104 108 109
4 134 104 92 91
4 134 91 92 93
4 135 119 125 127
4 136 106 47 46
4 49 15 96 14
4 135 63 134 72
4 45 9 51 81
4 130 56 86 0
4 136 92 134 109
4 137 87 83 75
4 138 129 124 98
4 136 108 111 107
4 136 100 92 109
4 134 112 60 110
4 136 57 50 48
4 136 57 137 50
4 137 120 80 82
4 135 103 133 73
4 136 55 47 107
4 138 50 122 121
4 135 103 67 89
4 92 100 38 109
4 136 137 81 78
4 4 88 69 22
4 134 108 104 110
4 138 50 137 122
4 49 14 100 54
4 136 77 81 85
4 8 55 51 81
4 114 46 106 136
4 84 105 34 76
4 137 61 63 64
4 116 34 84 105
4 136 107 47 106
4 137 45 130 122
4 136 107 115 55
4 128 69 131 120
4 134 92 104 109
4 3 100 14 54
4 138 90 102 96
4 137 50 57 53
4 134 65 68 94
4 21 61 62 74
4 134 72 139 66
4 136 114 100 109
4 71 118 99 7
4 33 34 105 76
4 114 46 136 54
4 8 81 51 9
4 139 105 116 84
4 135 133 97 119
4 137 74 80 78
4 138 58 52 129
4 139 84 116 70
4 137 126 80 120
4 134 68 65 72
4 136 81 55 85
4 136 108 139 111
4 134 112 110 104
4 92 109 38 39
4 4 69 88 131
4 136 78 139 137
4 107 115 55 17
4 55 115 1 17
4 137 64 125 128
4 19 106 46 18
4 136 134 108 109
4 134 117 139 108
4 136 77 115 111
4 49 100 14 96
4 135 63 65 59
4 71 99 26 7
4 134 117 108 110
4 55 85 1 115
4 94 135 65 89
4 138 90 101 98
4 135 102 95 93
4 137 120 64 128
4 130 11 56 0
4 136 138 49 48
4 137 78 87 81
4 135 95 89 93
4 138 124 121 123
4 136 135 138 137
4 92 39 91 104
4 136 138 93 96
4 138 44 101 90
4 137 64 120 82
4 137 132 120 128
4 138 124 95 98
4 67 89 103 28
4 134 68 99 94
4 136 51 137 57
4 138 44 90 96
4 67 28 103 73
4 136 51 47 55
4 135 95 97 89
4 136 139 78 77
4 91 39 40 104
4 136 51 55 81
4 136 100 49 96
4 136 92 100 96
4 66 113 29 70
4 136 54 49 100
4 134 104 99 118
4 135 97 133 103
4 97 119 133 43
4 6 133 103 73
4 42 95 97 119
4 137 126 130 86
4 64 69 82 74
4 81 45 137 51
4 29 116 5 70
4 86 45 10 56
4 136 137 51 81
4 88 74 69 22
4 25 127 133 73
4 134 60 71 68
4 137 80 126 83
4 134 139 72 63
4 136 115 77 85
4 135 125 59 127
4 135 59 67 73
4 136 51 57 48
4 136 134 138 135
4 136 134 135 137
4 136 49 138 96
4 21 61 74 22
4 139 77 111 76
4 135 124 123 119
4 77 32 85 115
4 111 33 105 76
4 139 78 77 76
4 3 19 114 54
4 86 56 10 0
4 139 113 66 70
4 135 97 103 89
4 6 25 133 73
4 38 109 100 114
4 139 116 113 70
4 139 70 79 84
4 86 137 45 130
4 139 137 74 61
4 125 137 123 135
4 128 69 120 64
4 129 2 41 101
4 138 124 129 121
4 135 139 134 63
4 138 50 52 44
4 53 122 12 11
4 137 130 126 122
4 139 74 62 61
4 135 125 64 59
4 139 63 137 61
4 139 62 63 61
4 136 115 107 111
4 136 81 77 78
4 19 46 114 54
4 47 18 107 17
4 135 125 137 64
4 129 58 2 101
4 137 80 74 82
4 101 90 44 16
4 15 96 90 44
4 134 104 118 112
4 74 137 64 61
4 136 46 49 54
4 134 60 66 110
4 136 49 46 48
4 138 135 124 123
4 136 54 100 114
4 99 104 91 40
4 81 45 75 137
4 135 137 134 139
4 68 94 89 27
4 135 67 103 73
4 138 44 58 101
4 139 72 63 66
4 137 125 132 128
4 136 137 138 50
4 138 96 49 44
4 136 108 107 106
4 129 101 41 98
4 97 133 103 43
4 136 139 77 111
4 77 111 32 115
4 32 115 1 85
4 134 71 112 118
4 47 107 55 17
4 47 18 46 106
4 134 112 71 60
4 138 129 52 121
4 20 5 84 70
4 64 23 24 128
4 64 24 59 128
4 135 125 119 123
4 94 135 134 65
4 138 102 90 98
4 136 55 115 85
4 138 44 49 48
4 138 122 137 123
4 137 53 57 45
4 69 23 64 128
4 69 131 23 128
4 136 50 138 48
4 4 88 37 131
4 88 69 74 82
4 8 85 55 81
4 8 1 55 85
4 99 118 104 40
4 138 95 135 102
4 26 94 99 68
4 71 68 26 99
4 99 118 40 7
4 136 47 51 48
4 120 64 69 82
4 79 20 84 70
4 86 126 130 35
4 25 24 127 59
4 25 59 127 73
4 6 43 103 133
4 135 94 134 93
4 6 103 28 73
4 137 122 126 123
4 135 134 65 72
4 120 82 69 131
4 125 137 132 123
4 125 59 127 24
4 125 59 24 128
4 125 64 59 128
4 47 107 18 106
4 136 106 114 109
4 136 93 138 134
4 19 114 46 106
4 135 95 124 119
4 3 114 100 54
4 134 99 104 91
4 3 114 38 100
4 130 45 86 56
4 135 67 65 89
4 42 98 95 119
4 138 102 93 96
4 138 124 135 95
4 58 101 16 2
4 58 101 44 16
4 77 32 111 33
4 137 75 83 86
4 77 33 111 76
4 134 99 71 118
4 137 87 80 83
4 64 69 74 61
4 135 64 63 59
4 135 127 59 73
4 30 113 60 110
4 29 113 116 70
4 135 89 94 93
4 135 65 63 72
4 67 89 28 27
4 138 122 123 121
4 74 137 82 64
4 74 61 69 22
4 134 66 139 110
4 136 46 47 48
4 138 102 135 93
4 129 2 58 13
4 4 23 69 131
4 88 69 82 131
4 88 37 131 82
4 134 139 117 110
4 116 70 84 5
4 116 5 84 34
4 30 60 112 110
4 120 37 36 82
4 120 131 37 82
4 137 87 75 81
4 138 44 52 58
4 139 108 117 111
4 124 129 41 98
4 139 74 137 78
4 80 120 83 36
4 80 82 120 36
4 136 108 106 109
4 135 127 133 119
4 136 93 92 96
4 136 93 134 92
4 139 79 74 78
4 137 83 126 86
4 52 13 129 58
4 52 129 13 121
4 139 66 62 70
4 52 121 12 50
4 52 12 121 13
4 135 64 137 63
4 95 124 119 98
4 135 133 127 73
4 139 62 79 70
4 30 112 60 31
4 130 86 35 0
4 53 50 12 121
4 53 121 12 122
4 53 50 121 122
4 137 50 53 122
4 45 9 81 75
4 86 45 75 10
4 45 75 10 9
4 53 130 45 122
4 139 113 116 105
4 139 84 79 76
4 62 20 79 70
4 139 105 84 76
4 139 105 111 117
4 66 113 30 29
4 138 101 129 98
4 126 35 83 36
4 139 111 105 76
4 26 94 68 27
4 53 130 56 45
4 135 59 65 67
4 130 53 56 11
4 130 122 53 11
4 86 126 35 83
4 15 44 90 16
4 92 39 104 109
4 139 79 62 74
4 136 139 134 137
4 134 94 99 91
4 137 45 57 51
4 66 60 113 110
4 139 66 63 62
4 66 60 30 113
4 138 121 52 50
4 126 120 36 83
4 134 72 66 60
4 126 80 120 83
4 42 124 41 98
4 42 119 124 98
4 42 119 97 43
4 65 89 67 27
4 65 68 89 27
4 138 48 50 44
4 135 137 139 63
4 65 89 68 94
4 136 108 134 139
4 134 68 71 99
4 138 95 102 98
4 137 123 126 132
4 137 53 45 122
4 137 132 126 120
4 135 97 95 119
4 134 68 72 60
4 21 74 62 79
4 21 79 62 20
4 71 31 118 7
4 71 112 118 31
4 71 60 112 31
4 86 137 75 45
4 138 135 134 93
4 49 96 15 44
4 138 137 135 123
4 139 66 113 110
4 137 78 80 87
4 139 113 117 110
4 138 58 129 101
4 139 79 78 76
4 139 113 105 117
4 134 93 94 91
CELL_TYPES 367
10
10
10
10
10
10
10
10
10
10
10
10
10
10
10
10
10
10
10
10
10
10
10
10
10
10
10
10
10
10
10
10
10
10
10
10
10
10
10
10
10
10
10
10
10
10
10
10
10
10
10
10
10
10
10
10
10
10
10
10
10
10
10
10
10
10
10
10
10
10
10
10
10
10
10
10
10
10
10
10
10
10
10
10
10
10
10
10
10
10
10
10
10
10
10
10
10
10
10
10
10
10
10
10
10
10
10
10
10
10
10
10
10
10
10
10
10
10
10
10
10
10
10
10
10
10
10
10
10
10
10
10
10
10
10
10
10
10
10
10
10
10
10
10
10
10
10
10
10
10
10
10
10
10
10
10
10
10
10
10
10
10
10
10
10
10
10
10
10
10
10
10
10
10
10
10
10
10
10
10
10
10
10
10
10
10
10
10
10
10
10
10
10
10
10
10
10
10
10
10
10
10
10
10
10
10
10
10
10
10
10
10
10
10
10
10
10
10
10
10
10
10
10
10
10
10
10
10
10
10
10
10
10
10
10
10
10
10
10
10
10
10
10
10
10
10
10
10
10
10
10
10
10
10
10
10
10
10
10
10
10
10
10
10
10
10
10
10
10
10
10
10
10
10
10
10
10
10
10
10
10
10
10
10
10
10
10
10
10
10
10
10
10
10
10
10
10
10
10
10
10
10
10
10
10
10
10
10
10
10
10
10
10
10
10
10
10
10
10
10
10
10
10
10
10
10
10
10
10
10
10
10
10
10
10
10
10
10
10
10
10
10
10
10
10
10
10
10
10
10
10
10
10
10
10
10
10
10
10
10
10
10
10
10
10
10
10
POINT_DATA 140
SCALARS solution float 1
LOOKUP_TABLE default
1.0
0.0
1.0
0.0
1.0
0.0
1.0
0.0
0.24999999999999983
0.49999999999999906
0.7499999999999988
1.0
1.0
1.0
0.2499999999999997
0.49999999999999895
0.749999999999999
0.0
0.0
0.0
0.24999999999999983
0.49999999999999895
0.7499999999999991
1.0
1.0
1.0
0.24999999999999972
0.4999999999999989
0.7499999999999987
0.0
0.0
0.0
0.0
0.0
0.0
1.0
1.0
1.0
0.0
0.0
0.0
1.0
1.0
1.0
0.6249999999999989
0.6359641041884293
0.21169301126395773
0.21140065584108658
0.4330127018922186
0.36711973584139884
0.7082726776397392
0.3989630255083485
0.8231510809247649
0.8447098097131593
0.18301270189221958
0.18301270189221924
0.8250407933257092
0.5884011055039229
0.851519540351917
0.7834936490538907
0.20461181273128595
0.6239406576797799
0.37599499937073966
0.4999999999999989
0.7874036008069086
0.5203442540690991
0.2365667220822623
0.6896861734925067
0.37499999999999933
0.8169872981077806
0.18301270189221897
0.17809778053064593
0.3832210891220215
0.8540734935786138
0.6249999999999991
0.6359641041884292
0.21169301126395781
0.21140065584108642
0.43301270189221847
0.36711973584139884
0.7082726776397397
0.39896302550834856
0.8231510809247651
0.8447098097131595
0.18301270189221971
0.18301270189221908
0.825040793325709
0.5884011055039228
0.8515195403519169
0.624999999999999
0.6359641041884293
0.2116930112639578
0.2114006558410861
0.43301270189221797
0.36711973584139873
0.7082726776397389
0.39896302550834817
0.8231510809247646
0.8447098097131592
0.18301270189221966
0.18301270189221897
0.8250407933257092
0.5884011055039224
0.8515195403519163
0.0
0.0
0.0
0.0
0.0
0.0
0.0
0.0
0.0
0.0
0.0
0.0
0.0
0.0
0.0
1.0
1.0
1.0
1.0
1.0
1.0
1.0
1.0
1.0
1.0
1.0
1.0
1.0
1.0
1.0
0.30649051254472054
0.6670469709502466
0.39583241520585155
0.5931435878149737
0.6585087434046688
0.28797644945709716
